PSF EXT CMAP XPLOR

         3 !NTITLE
* GENERATED BY CHARMM-GUI (HTTP://WWW.CHARMM-GUI.ORG) V3.7 ON AUG, 30. 2026. JOB
* GET A DIFFERENT CONFORMATION FOR LIPIDS PENETRATING PROTEIN / CHOL            
*  DATE:     8/30/26     14:17: 9      CREATED BY USER: charmm-gui              

     17238 !NATOM
         1 MEMB     1        POPC     N        NTL     -0.600000       14.0070           0
         2 MEMB     1        POPC     C12      CTL2    -0.100000       12.0110           0
         3 MEMB     1        POPC     H12A     HL       0.250000       1.00800           0
         4 MEMB     1        POPC     H12B     HL       0.250000       1.00800           0
         5 MEMB     1        POPC     C13      CTL5    -0.350000       12.0110           0
         6 MEMB     1        POPC     H13A     HL       0.250000       1.00800           0
         7 MEMB     1        POPC     H13B     HL       0.250000       1.00800           0
         8 MEMB     1        POPC     H13C     HL       0.250000       1.00800           0
         9 MEMB     1        POPC     C14      CTL5    -0.350000       12.0110           0
        10 MEMB     1        POPC     H14A     HL       0.250000       1.00800           0
        11 MEMB     1        POPC     H14B     HL       0.250000       1.00800           0
        12 MEMB     1        POPC     H14C     HL       0.250000       1.00800           0
        13 MEMB     1        POPC     C15      CTL5    -0.350000       12.0110           0
        14 MEMB     1        POPC     H15A     HL       0.250000       1.00800           0
        15 MEMB     1        POPC     H15B     HL       0.250000       1.00800           0
        16 MEMB     1        POPC     H15C     HL       0.250000       1.00800           0
        17 MEMB     1        POPC     C11      CTL2    -0.800000E-01   12.0110           0
        18 MEMB     1        POPC     H11A     HAL2     0.900000E-01   1.00800           0
        19 MEMB     1        POPC     H11B     HAL2     0.900000E-01   1.00800           0
        20 MEMB     1        POPC     P        PL        1.50000       30.9740           0
        21 MEMB     1        POPC     O13      O2L     -0.780000       15.9994           0
        22 MEMB     1        POPC     O14      O2L     -0.780000       15.9994           0
        23 MEMB     1        POPC     O12      OSLP    -0.570000       15.9994           0
        24 MEMB     1        POPC     O11      OSLP    -0.570000       15.9994           0
        25 MEMB     1        POPC     C1       CTL2    -0.800000E-01   12.0110           0
        26 MEMB     1        POPC     HA       HAL2     0.900000E-01   1.00800           0
        27 MEMB     1        POPC     HB       HAL2     0.900000E-01   1.00800           0
        28 MEMB     1        POPC     C2       CTL1     0.170000       12.0110           0
        29 MEMB     1        POPC     HS       HAL1     0.900000E-01   1.00800           0
        30 MEMB     1        POPC     O21      OSL     -0.490000       15.9994           0
        31 MEMB     1        POPC     C21      CL       0.900000       12.0110           0
        32 MEMB     1        POPC     O22      OBL     -0.630000       15.9994           0
        33 MEMB     1        POPC     C22      CTL2    -0.220000       12.0110           0
        34 MEMB     1        POPC     H2R      HAL2     0.900000E-01   1.00800           0
        35 MEMB     1        POPC     H2S      HAL2     0.900000E-01   1.00800           0
        36 MEMB     1        POPC     C3       CTL2     0.800000E-01   12.0110           0
        37 MEMB     1        POPC     HX       HAL2     0.900000E-01   1.00800           0
        38 MEMB     1        POPC     HY       HAL2     0.900000E-01   1.00800           0
        39 MEMB     1        POPC     O31      OSL     -0.490000       15.9994           0
        40 MEMB     1        POPC     C31      CL       0.900000       12.0110           0
        41 MEMB     1        POPC     O32      OBL     -0.630000       15.9994           0
        42 MEMB     1        POPC     C32      CTL2    -0.220000       12.0110           0
        43 MEMB     1        POPC     H2X      HAL2     0.900000E-01   1.00800           0
        44 MEMB     1        POPC     H2Y      HAL2     0.900000E-01   1.00800           0
        45 MEMB     1        POPC     C23      CTL2    -0.180000       12.0110           0
        46 MEMB     1        POPC     H3R      HAL2     0.900000E-01   1.00800           0
        47 MEMB     1        POPC     H3S      HAL2     0.900000E-01   1.00800           0
        48 MEMB     1        POPC     C24      CTL2    -0.180000       12.0110           0
        49 MEMB     1        POPC     H4R      HAL2     0.900000E-01   1.00800           0
        50 MEMB     1        POPC     H4S      HAL2     0.900000E-01   1.00800           0
        51 MEMB     1        POPC     C25      CTL2    -0.180000       12.0110           0
        52 MEMB     1        POPC     H5R      HAL2     0.900000E-01   1.00800           0
        53 MEMB     1        POPC     H5S      HAL2     0.900000E-01   1.00800           0
        54 MEMB     1        POPC     C26      CTL2    -0.180000       12.0110           0
        55 MEMB     1        POPC     H6R      HAL2     0.900000E-01   1.00800           0
        56 MEMB     1        POPC     H6S      HAL2     0.900000E-01   1.00800           0
        57 MEMB     1        POPC     C27      CTL2    -0.180000       12.0110           0
        58 MEMB     1        POPC     H7R      HAL2     0.900000E-01   1.00800           0
        59 MEMB     1        POPC     H7S      HAL2     0.900000E-01   1.00800           0
        60 MEMB     1        POPC     C28      CTL2    -0.180000       12.0110           0
        61 MEMB     1        POPC     H8R      HAL2     0.900000E-01   1.00800           0
        62 MEMB     1        POPC     H8S      HAL2     0.900000E-01   1.00800           0
        63 MEMB     1        POPC     C29      CEL1    -0.150000       12.0110           0
        64 MEMB     1        POPC     H91      HEL1     0.150000       1.00800           0
        65 MEMB     1        POPC     C210     CEL1    -0.150000       12.0110           0
        66 MEMB     1        POPC     H101     HEL1     0.150000       1.00800           0
        67 MEMB     1        POPC     C211     CTL2    -0.180000       12.0110           0
        68 MEMB     1        POPC     H11R     HAL2     0.900000E-01   1.00800           0
        69 MEMB     1        POPC     H11S     HAL2     0.900000E-01   1.00800           0
        70 MEMB     1        POPC     C212     CTL2    -0.180000       12.0110           0
        71 MEMB     1        POPC     H12R     HAL2     0.900000E-01   1.00800           0
        72 MEMB     1        POPC     H12S     HAL2     0.900000E-01   1.00800           0
        73 MEMB     1        POPC     C213     CTL2    -0.180000       12.0110           0
        74 MEMB     1        POPC     H13R     HAL2     0.900000E-01   1.00800           0
        75 MEMB     1        POPC     H13S     HAL2     0.900000E-01   1.00800           0
        76 MEMB     1        POPC     C214     CTL2    -0.180000       12.0110           0
        77 MEMB     1        POPC     H14R     HAL2     0.900000E-01   1.00800           0
        78 MEMB     1        POPC     H14S     HAL2     0.900000E-01   1.00800           0
        79 MEMB     1        POPC     C215     CTL2    -0.180000       12.0110           0
        80 MEMB     1        POPC     H15R     HAL2     0.900000E-01   1.00800           0
        81 MEMB     1        POPC     H15S     HAL2     0.900000E-01   1.00800           0
        82 MEMB     1        POPC     C216     CTL2    -0.180000       12.0110           0
        83 MEMB     1        POPC     H16R     HAL2     0.900000E-01   1.00800           0
        84 MEMB     1        POPC     H16S     HAL2     0.900000E-01   1.00800           0
        85 MEMB     1        POPC     C217     CTL2    -0.180000       12.0110           0
        86 MEMB     1        POPC     H17R     HAL2     0.900000E-01   1.00800           0
        87 MEMB     1        POPC     H17S     HAL2     0.900000E-01   1.00800           0
        88 MEMB     1        POPC     C218     CTL3    -0.270000       12.0110           0
        89 MEMB     1        POPC     H18R     HAL3     0.900000E-01   1.00800           0
        90 MEMB     1        POPC     H18S     HAL3     0.900000E-01   1.00800           0
        91 MEMB     1        POPC     H18T     HAL3     0.900000E-01   1.00800           0
        92 MEMB     1        POPC     C33      CTL2    -0.180000       12.0110           0
        93 MEMB     1        POPC     H3X      HAL2     0.900000E-01   1.00800           0
        94 MEMB     1        POPC     H3Y      HAL2     0.900000E-01   1.00800           0
        95 MEMB     1        POPC     C34      CTL2    -0.180000       12.0110           0
        96 MEMB     1        POPC     H4X      HAL2     0.900000E-01   1.00800           0
        97 MEMB     1        POPC     H4Y      HAL2     0.900000E-01   1.00800           0
        98 MEMB     1        POPC     C35      CTL2    -0.180000       12.0110           0
        99 MEMB     1        POPC     H5X      HAL2     0.900000E-01   1.00800           0
       100 MEMB     1        POPC     H5Y      HAL2     0.900000E-01   1.00800           0
       101 MEMB     1        POPC     C36      CTL2    -0.180000       12.0110           0
       102 MEMB     1        POPC     H6X      HAL2     0.900000E-01   1.00800           0
       103 MEMB     1        POPC     H6Y      HAL2     0.900000E-01   1.00800           0
       104 MEMB     1        POPC     C37      CTL2    -0.180000       12.0110           0
       105 MEMB     1        POPC     H7X      HAL2     0.900000E-01   1.00800           0
       106 MEMB     1        POPC     H7Y      HAL2     0.900000E-01   1.00800           0
       107 MEMB     1        POPC     C38      CTL2    -0.180000       12.0110           0
       108 MEMB     1        POPC     H8X      HAL2     0.900000E-01   1.00800           0
       109 MEMB     1        POPC     H8Y      HAL2     0.900000E-01   1.00800           0
       110 MEMB     1        POPC     C39      CTL2    -0.180000       12.0110           0
       111 MEMB     1        POPC     H9X      HAL2     0.900000E-01   1.00800           0
       112 MEMB     1        POPC     H9Y      HAL2     0.900000E-01   1.00800           0
       113 MEMB     1        POPC     C310     CTL2    -0.180000       12.0110           0
       114 MEMB     1        POPC     H10X     HAL2     0.900000E-01   1.00800           0
       115 MEMB     1        POPC     H10Y     HAL2     0.900000E-01   1.00800           0
       116 MEMB     1        POPC     C311     CTL2    -0.180000       12.0110           0
       117 MEMB     1        POPC     H11X     HAL2     0.900000E-01   1.00800           0
       118 MEMB     1        POPC     H11Y     HAL2     0.900000E-01   1.00800           0
       119 MEMB     1        POPC     C312     CTL2    -0.180000       12.0110           0
       120 MEMB     1        POPC     H12X     HAL2     0.900000E-01   1.00800           0
       121 MEMB     1        POPC     H12Y     HAL2     0.900000E-01   1.00800           0
       122 MEMB     1        POPC     C313     CTL2    -0.180000       12.0110           0
       123 MEMB     1        POPC     H13X     HAL2     0.900000E-01   1.00800           0
       124 MEMB     1        POPC     H13Y     HAL2     0.900000E-01   1.00800           0
       125 MEMB     1        POPC     C314     CTL2    -0.180000       12.0110           0
       126 MEMB     1        POPC     H14X     HAL2     0.900000E-01   1.00800           0
       127 MEMB     1        POPC     H14Y     HAL2     0.900000E-01   1.00800           0
       128 MEMB     1        POPC     C315     CTL2    -0.180000       12.0110           0
       129 MEMB     1        POPC     H15X     HAL2     0.900000E-01   1.00800           0
       130 MEMB     1        POPC     H15Y     HAL2     0.900000E-01   1.00800           0
       131 MEMB     1        POPC     C316     CTL3    -0.270000       12.0110           0
       132 MEMB     1        POPC     H16X     HAL3     0.900000E-01   1.00800           0
       133 MEMB     1        POPC     H16Y     HAL3     0.900000E-01   1.00800           0
       134 MEMB     1        POPC     H16Z     HAL3     0.900000E-01   1.00800           0
       135 MEMB     2        POPS     N        NH3L    -0.300000       14.0070           0
       136 MEMB     2        POPS     HN1      HCL      0.330000       1.00800           0
       137 MEMB     2        POPS     HN2      HCL      0.330000       1.00800           0
       138 MEMB     2        POPS     HN3      HCL      0.330000       1.00800           0
       139 MEMB     2        POPS     C12      CTL1     0.210000       12.0110           0
       140 MEMB     2        POPS     H12A     HBL      0.100000       1.00800           0
       141 MEMB     2        POPS     C13      CCL      0.340000       12.0110           0
       142 MEMB     2        POPS     O13A     OCL     -0.670000       15.9994           0
       143 MEMB     2        POPS     O13B     OCL     -0.670000       15.9994           0
       144 MEMB     2        POPS     C11      CTL2    -0.800000E-01   12.0110           0
       145 MEMB     2        POPS     H11A     HAL2     0.900000E-01   1.00800           0
       146 MEMB     2        POPS     H11B     HAL2     0.900000E-01   1.00800           0
       147 MEMB     2        POPS     P        PL        1.50000       30.9740           0
       148 MEMB     2        POPS     O13      O2L     -0.780000       15.9994           0
       149 MEMB     2        POPS     O14      O2L     -0.780000       15.9994           0
       150 MEMB     2        POPS     O12      OSLP    -0.570000       15.9994           0
       151 MEMB     2        POPS     O11      OSLP    -0.570000       15.9994           0
       152 MEMB     2        POPS     C1       CTL2    -0.800000E-01   12.0110           0
       153 MEMB     2        POPS     HA       HAL2     0.900000E-01   1.00800           0
       154 MEMB     2        POPS     HB       HAL2     0.900000E-01   1.00800           0
       155 MEMB     2        POPS     C2       CTL1     0.170000       12.0110           0
       156 MEMB     2        POPS     HS       HAL1     0.900000E-01   1.00800           0
       157 MEMB     2        POPS     O21      OSL     -0.490000       15.9994           0
       158 MEMB     2        POPS     C21      CL       0.900000       12.0110           0
       159 MEMB     2        POPS     O22      OBL     -0.630000       15.9994           0
       160 MEMB     2        POPS     C22      CTL2    -0.220000       12.0110           0
       161 MEMB     2        POPS     H2R      HAL2     0.900000E-01   1.00800           0
       162 MEMB     2        POPS     H2S      HAL2     0.900000E-01   1.00800           0
       163 MEMB     2        POPS     C3       CTL2     0.800000E-01   12.0110           0
       164 MEMB     2        POPS     HX       HAL2     0.900000E-01   1.00800           0
       165 MEMB     2        POPS     HY       HAL2     0.900000E-01   1.00800           0
       166 MEMB     2        POPS     O31      OSL     -0.490000       15.9994           0
       167 MEMB     2        POPS     C31      CL       0.900000       12.0110           0
       168 MEMB     2        POPS     O32      OBL     -0.630000       15.9994           0
       169 MEMB     2        POPS     C32      CTL2    -0.220000       12.0110           0
       170 MEMB     2        POPS     H2X      HAL2     0.900000E-01   1.00800           0
       171 MEMB     2        POPS     H2Y      HAL2     0.900000E-01   1.00800           0
       172 MEMB     2        POPS     C23      CTL2    -0.180000       12.0110           0
       173 MEMB     2        POPS     H3R      HAL2     0.900000E-01   1.00800           0
       174 MEMB     2        POPS     H3S      HAL2     0.900000E-01   1.00800           0
       175 MEMB     2        POPS     C24      CTL2    -0.180000       12.0110           0
       176 MEMB     2        POPS     H4R      HAL2     0.900000E-01   1.00800           0
       177 MEMB     2        POPS     H4S      HAL2     0.900000E-01   1.00800           0
       178 MEMB     2        POPS     C25      CTL2    -0.180000       12.0110           0
       179 MEMB     2        POPS     H5R      HAL2     0.900000E-01   1.00800           0
       180 MEMB     2        POPS     H5S      HAL2     0.900000E-01   1.00800           0
       181 MEMB     2        POPS     C26      CTL2    -0.180000       12.0110           0
       182 MEMB     2        POPS     H6R      HAL2     0.900000E-01   1.00800           0
       183 MEMB     2        POPS     H6S      HAL2     0.900000E-01   1.00800           0
       184 MEMB     2        POPS     C27      CTL2    -0.180000       12.0110           0
       185 MEMB     2        POPS     H7R      HAL2     0.900000E-01   1.00800           0
       186 MEMB     2        POPS     H7S      HAL2     0.900000E-01   1.00800           0
       187 MEMB     2        POPS     C28      CTL2    -0.180000       12.0110           0
       188 MEMB     2        POPS     H8R      HAL2     0.900000E-01   1.00800           0
       189 MEMB     2        POPS     H8S      HAL2     0.900000E-01   1.00800           0
       190 MEMB     2        POPS     C29      CEL1    -0.150000       12.0110           0
       191 MEMB     2        POPS     H91      HEL1     0.150000       1.00800           0
       192 MEMB     2        POPS     C210     CEL1    -0.150000       12.0110           0
       193 MEMB     2        POPS     H101     HEL1     0.150000       1.00800           0
       194 MEMB     2        POPS     C211     CTL2    -0.180000       12.0110           0
       195 MEMB     2        POPS     H11R     HAL2     0.900000E-01   1.00800           0
       196 MEMB     2        POPS     H11S     HAL2     0.900000E-01   1.00800           0
       197 MEMB     2        POPS     C212     CTL2    -0.180000       12.0110           0
       198 MEMB     2        POPS     H12R     HAL2     0.900000E-01   1.00800           0
       199 MEMB     2        POPS     H12S     HAL2     0.900000E-01   1.00800           0
       200 MEMB     2        POPS     C213     CTL2    -0.180000       12.0110           0
       201 MEMB     2        POPS     H13R     HAL2     0.900000E-01   1.00800           0
       202 MEMB     2        POPS     H13S     HAL2     0.900000E-01   1.00800           0
       203 MEMB     2        POPS     C214     CTL2    -0.180000       12.0110           0
       204 MEMB     2        POPS     H14R     HAL2     0.900000E-01   1.00800           0
       205 MEMB     2        POPS     H14S     HAL2     0.900000E-01   1.00800           0
       206 MEMB     2        POPS     C215     CTL2    -0.180000       12.0110           0
       207 MEMB     2        POPS     H15R     HAL2     0.900000E-01   1.00800           0
       208 MEMB     2        POPS     H15S     HAL2     0.900000E-01   1.00800           0
       209 MEMB     2        POPS     C216     CTL2    -0.180000       12.0110           0
       210 MEMB     2        POPS     H16R     HAL2     0.900000E-01   1.00800           0
       211 MEMB     2        POPS     H16S     HAL2     0.900000E-01   1.00800           0
       212 MEMB     2        POPS     C217     CTL2    -0.180000       12.0110           0
       213 MEMB     2        POPS     H17R     HAL2     0.900000E-01   1.00800           0
       214 MEMB     2        POPS     H17S     HAL2     0.900000E-01   1.00800           0
       215 MEMB     2        POPS     C218     CTL3    -0.270000       12.0110           0
       216 MEMB     2        POPS     H18R     HAL3     0.900000E-01   1.00800           0
       217 MEMB     2        POPS     H18S     HAL3     0.900000E-01   1.00800           0
       218 MEMB     2        POPS     H18T     HAL3     0.900000E-01   1.00800           0
       219 MEMB     2        POPS     C33      CTL2    -0.180000       12.0110           0
       220 MEMB     2        POPS     H3X      HAL2     0.900000E-01   1.00800           0
       221 MEMB     2        POPS     H3Y      HAL2     0.900000E-01   1.00800           0
       222 MEMB     2        POPS     C34      CTL2    -0.180000       12.0110           0
       223 MEMB     2        POPS     H4X      HAL2     0.900000E-01   1.00800           0
       224 MEMB     2        POPS     H4Y      HAL2     0.900000E-01   1.00800           0
       225 MEMB     2        POPS     C35      CTL2    -0.180000       12.0110           0
       226 MEMB     2        POPS     H5X      HAL2     0.900000E-01   1.00800           0
       227 MEMB     2        POPS     H5Y      HAL2     0.900000E-01   1.00800           0
       228 MEMB     2        POPS     C36      CTL2    -0.180000       12.0110           0
       229 MEMB     2        POPS     H6X      HAL2     0.900000E-01   1.00800           0
       230 MEMB     2        POPS     H6Y      HAL2     0.900000E-01   1.00800           0
       231 MEMB     2        POPS     C37      CTL2    -0.180000       12.0110           0
       232 MEMB     2        POPS     H7X      HAL2     0.900000E-01   1.00800           0
       233 MEMB     2        POPS     H7Y      HAL2     0.900000E-01   1.00800           0
       234 MEMB     2        POPS     C38      CTL2    -0.180000       12.0110           0
       235 MEMB     2        POPS     H8X      HAL2     0.900000E-01   1.00800           0
       236 MEMB     2        POPS     H8Y      HAL2     0.900000E-01   1.00800           0
       237 MEMB     2        POPS     C39      CTL2    -0.180000       12.0110           0
       238 MEMB     2        POPS     H9X      HAL2     0.900000E-01   1.00800           0
       239 MEMB     2        POPS     H9Y      HAL2     0.900000E-01   1.00800           0
       240 MEMB     2        POPS     C310     CTL2    -0.180000       12.0110           0
       241 MEMB     2        POPS     H10X     HAL2     0.900000E-01   1.00800           0
       242 MEMB     2        POPS     H10Y     HAL2     0.900000E-01   1.00800           0
       243 MEMB     2        POPS     C311     CTL2    -0.180000       12.0110           0
       244 MEMB     2        POPS     H11X     HAL2     0.900000E-01   1.00800           0
       245 MEMB     2        POPS     H11Y     HAL2     0.900000E-01   1.00800           0
       246 MEMB     2        POPS     C312     CTL2    -0.180000       12.0110           0
       247 MEMB     2        POPS     H12X     HAL2     0.900000E-01   1.00800           0
       248 MEMB     2        POPS     H12Y     HAL2     0.900000E-01   1.00800           0
       249 MEMB     2        POPS     C313     CTL2    -0.180000       12.0110           0
       250 MEMB     2        POPS     H13X     HAL2     0.900000E-01   1.00800           0
       251 MEMB     2        POPS     H13Y     HAL2     0.900000E-01   1.00800           0
       252 MEMB     2        POPS     C314     CTL2    -0.180000       12.0110           0
       253 MEMB     2        POPS     H14X     HAL2     0.900000E-01   1.00800           0
       254 MEMB     2        POPS     H14Y     HAL2     0.900000E-01   1.00800           0
       255 MEMB     2        POPS     C315     CTL2    -0.180000       12.0110           0
       256 MEMB     2        POPS     H15X     HAL2     0.900000E-01   1.00800           0
       257 MEMB     2        POPS     H15Y     HAL2     0.900000E-01   1.00800           0
       258 MEMB     2        POPS     C316     CTL3    -0.270000       12.0110           0
       259 MEMB     2        POPS     H16X     HAL3     0.900000E-01   1.00800           0
       260 MEMB     2        POPS     H16Y     HAL3     0.900000E-01   1.00800           0
       261 MEMB     2        POPS     H16Z     HAL3     0.900000E-01   1.00800           0
       262 MEMB     3        POPS     N        NH3L    -0.300000       14.0070           0
       263 MEMB     3        POPS     HN1      HCL      0.330000       1.00800           0
       264 MEMB     3        POPS     HN2      HCL      0.330000       1.00800           0
       265 MEMB     3        POPS     HN3      HCL      0.330000       1.00800           0
       266 MEMB     3        POPS     C12      CTL1     0.210000       12.0110           0
       267 MEMB     3        POPS     H12A     HBL      0.100000       1.00800           0
       268 MEMB     3        POPS     C13      CCL      0.340000       12.0110           0
       269 MEMB     3        POPS     O13A     OCL     -0.670000       15.9994           0
       270 MEMB     3        POPS     O13B     OCL     -0.670000       15.9994           0
       271 MEMB     3        POPS     C11      CTL2    -0.800000E-01   12.0110           0
       272 MEMB     3        POPS     H11A     HAL2     0.900000E-01   1.00800           0
       273 MEMB     3        POPS     H11B     HAL2     0.900000E-01   1.00800           0
       274 MEMB     3        POPS     P        PL        1.50000       30.9740           0
       275 MEMB     3        POPS     O13      O2L     -0.780000       15.9994           0
       276 MEMB     3        POPS     O14      O2L     -0.780000       15.9994           0
       277 MEMB     3        POPS     O12      OSLP    -0.570000       15.9994           0
       278 MEMB     3        POPS     O11      OSLP    -0.570000       15.9994           0
       279 MEMB     3        POPS     C1       CTL2    -0.800000E-01   12.0110           0
       280 MEMB     3        POPS     HA       HAL2     0.900000E-01   1.00800           0
       281 MEMB     3        POPS     HB       HAL2     0.900000E-01   1.00800           0
       282 MEMB     3        POPS     C2       CTL1     0.170000       12.0110           0
       283 MEMB     3        POPS     HS       HAL1     0.900000E-01   1.00800           0
       284 MEMB     3        POPS     O21      OSL     -0.490000       15.9994           0
       285 MEMB     3        POPS     C21      CL       0.900000       12.0110           0
       286 MEMB     3        POPS     O22      OBL     -0.630000       15.9994           0
       287 MEMB     3        POPS     C22      CTL2    -0.220000       12.0110           0
       288 MEMB     3        POPS     H2R      HAL2     0.900000E-01   1.00800           0
       289 MEMB     3        POPS     H2S      HAL2     0.900000E-01   1.00800           0
       290 MEMB     3        POPS     C3       CTL2     0.800000E-01   12.0110           0
       291 MEMB     3        POPS     HX       HAL2     0.900000E-01   1.00800           0
       292 MEMB     3        POPS     HY       HAL2     0.900000E-01   1.00800           0
       293 MEMB     3        POPS     O31      OSL     -0.490000       15.9994           0
       294 MEMB     3        POPS     C31      CL       0.900000       12.0110           0
       295 MEMB     3        POPS     O32      OBL     -0.630000       15.9994           0
       296 MEMB     3        POPS     C32      CTL2    -0.220000       12.0110           0
       297 MEMB     3        POPS     H2X      HAL2     0.900000E-01   1.00800           0
       298 MEMB     3        POPS     H2Y      HAL2     0.900000E-01   1.00800           0
       299 MEMB     3        POPS     C23      CTL2    -0.180000       12.0110           0
       300 MEMB     3        POPS     H3R      HAL2     0.900000E-01   1.00800           0
       301 MEMB     3        POPS     H3S      HAL2     0.900000E-01   1.00800           0
       302 MEMB     3        POPS     C24      CTL2    -0.180000       12.0110           0
       303 MEMB     3        POPS     H4R      HAL2     0.900000E-01   1.00800           0
       304 MEMB     3        POPS     H4S      HAL2     0.900000E-01   1.00800           0
       305 MEMB     3        POPS     C25      CTL2    -0.180000       12.0110           0
       306 MEMB     3        POPS     H5R      HAL2     0.900000E-01   1.00800           0
       307 MEMB     3        POPS     H5S      HAL2     0.900000E-01   1.00800           0
       308 MEMB     3        POPS     C26      CTL2    -0.180000       12.0110           0
       309 MEMB     3        POPS     H6R      HAL2     0.900000E-01   1.00800           0
       310 MEMB     3        POPS     H6S      HAL2     0.900000E-01   1.00800           0
       311 MEMB     3        POPS     C27      CTL2    -0.180000       12.0110           0
       312 MEMB     3        POPS     H7R      HAL2     0.900000E-01   1.00800           0
       313 MEMB     3        POPS     H7S      HAL2     0.900000E-01   1.00800           0
       314 MEMB     3        POPS     C28      CTL2    -0.180000       12.0110           0
       315 MEMB     3        POPS     H8R      HAL2     0.900000E-01   1.00800           0
       316 MEMB     3        POPS     H8S      HAL2     0.900000E-01   1.00800           0
       317 MEMB     3        POPS     C29      CEL1    -0.150000       12.0110           0
       318 MEMB     3        POPS     H91      HEL1     0.150000       1.00800           0
       319 MEMB     3        POPS     C210     CEL1    -0.150000       12.0110           0
       320 MEMB     3        POPS     H101     HEL1     0.150000       1.00800           0
       321 MEMB     3        POPS     C211     CTL2    -0.180000       12.0110           0
       322 MEMB     3        POPS     H11R     HAL2     0.900000E-01   1.00800           0
       323 MEMB     3        POPS     H11S     HAL2     0.900000E-01   1.00800           0
       324 MEMB     3        POPS     C212     CTL2    -0.180000       12.0110           0
       325 MEMB     3        POPS     H12R     HAL2     0.900000E-01   1.00800           0
       326 MEMB     3        POPS     H12S     HAL2     0.900000E-01   1.00800           0
       327 MEMB     3        POPS     C213     CTL2    -0.180000       12.0110           0
       328 MEMB     3        POPS     H13R     HAL2     0.900000E-01   1.00800           0
       329 MEMB     3        POPS     H13S     HAL2     0.900000E-01   1.00800           0
       330 MEMB     3        POPS     C214     CTL2    -0.180000       12.0110           0
       331 MEMB     3        POPS     H14R     HAL2     0.900000E-01   1.00800           0
       332 MEMB     3        POPS     H14S     HAL2     0.900000E-01   1.00800           0
       333 MEMB     3        POPS     C215     CTL2    -0.180000       12.0110           0
       334 MEMB     3        POPS     H15R     HAL2     0.900000E-01   1.00800           0
       335 MEMB     3        POPS     H15S     HAL2     0.900000E-01   1.00800           0
       336 MEMB     3        POPS     C216     CTL2    -0.180000       12.0110           0
       337 MEMB     3        POPS     H16R     HAL2     0.900000E-01   1.00800           0
       338 MEMB     3        POPS     H16S     HAL2     0.900000E-01   1.00800           0
       339 MEMB     3        POPS     C217     CTL2    -0.180000       12.0110           0
       340 MEMB     3        POPS     H17R     HAL2     0.900000E-01   1.00800           0
       341 MEMB     3        POPS     H17S     HAL2     0.900000E-01   1.00800           0
       342 MEMB     3        POPS     C218     CTL3    -0.270000       12.0110           0
       343 MEMB     3        POPS     H18R     HAL3     0.900000E-01   1.00800           0
       344 MEMB     3        POPS     H18S     HAL3     0.900000E-01   1.00800           0
       345 MEMB     3        POPS     H18T     HAL3     0.900000E-01   1.00800           0
       346 MEMB     3        POPS     C33      CTL2    -0.180000       12.0110           0
       347 MEMB     3        POPS     H3X      HAL2     0.900000E-01   1.00800           0
       348 MEMB     3        POPS     H3Y      HAL2     0.900000E-01   1.00800           0
       349 MEMB     3        POPS     C34      CTL2    -0.180000       12.0110           0
       350 MEMB     3        POPS     H4X      HAL2     0.900000E-01   1.00800           0
       351 MEMB     3        POPS     H4Y      HAL2     0.900000E-01   1.00800           0
       352 MEMB     3        POPS     C35      CTL2    -0.180000       12.0110           0
       353 MEMB     3        POPS     H5X      HAL2     0.900000E-01   1.00800           0
       354 MEMB     3        POPS     H5Y      HAL2     0.900000E-01   1.00800           0
       355 MEMB     3        POPS     C36      CTL2    -0.180000       12.0110           0
       356 MEMB     3        POPS     H6X      HAL2     0.900000E-01   1.00800           0
       357 MEMB     3        POPS     H6Y      HAL2     0.900000E-01   1.00800           0
       358 MEMB     3        POPS     C37      CTL2    -0.180000       12.0110           0
       359 MEMB     3        POPS     H7X      HAL2     0.900000E-01   1.00800           0
       360 MEMB     3        POPS     H7Y      HAL2     0.900000E-01   1.00800           0
       361 MEMB     3        POPS     C38      CTL2    -0.180000       12.0110           0
       362 MEMB     3        POPS     H8X      HAL2     0.900000E-01   1.00800           0
       363 MEMB     3        POPS     H8Y      HAL2     0.900000E-01   1.00800           0
       364 MEMB     3        POPS     C39      CTL2    -0.180000       12.0110           0
       365 MEMB     3        POPS     H9X      HAL2     0.900000E-01   1.00800           0
       366 MEMB     3        POPS     H9Y      HAL2     0.900000E-01   1.00800           0
       367 MEMB     3        POPS     C310     CTL2    -0.180000       12.0110           0
       368 MEMB     3        POPS     H10X     HAL2     0.900000E-01   1.00800           0
       369 MEMB     3        POPS     H10Y     HAL2     0.900000E-01   1.00800           0
       370 MEMB     3        POPS     C311     CTL2    -0.180000       12.0110           0
       371 MEMB     3        POPS     H11X     HAL2     0.900000E-01   1.00800           0
       372 MEMB     3        POPS     H11Y     HAL2     0.900000E-01   1.00800           0
       373 MEMB     3        POPS     C312     CTL2    -0.180000       12.0110           0
       374 MEMB     3        POPS     H12X     HAL2     0.900000E-01   1.00800           0
       375 MEMB     3        POPS     H12Y     HAL2     0.900000E-01   1.00800           0
       376 MEMB     3        POPS     C313     CTL2    -0.180000       12.0110           0
       377 MEMB     3        POPS     H13X     HAL2     0.900000E-01   1.00800           0
       378 MEMB     3        POPS     H13Y     HAL2     0.900000E-01   1.00800           0
       379 MEMB     3        POPS     C314     CTL2    -0.180000       12.0110           0
       380 MEMB     3        POPS     H14X     HAL2     0.900000E-01   1.00800           0
       381 MEMB     3        POPS     H14Y     HAL2     0.900000E-01   1.00800           0
       382 MEMB     3        POPS     C315     CTL2    -0.180000       12.0110           0
       383 MEMB     3        POPS     H15X     HAL2     0.900000E-01   1.00800           0
       384 MEMB     3        POPS     H15Y     HAL2     0.900000E-01   1.00800           0
       385 MEMB     3        POPS     C316     CTL3    -0.270000       12.0110           0
       386 MEMB     3        POPS     H16X     HAL3     0.900000E-01   1.00800           0
       387 MEMB     3        POPS     H16Y     HAL3     0.900000E-01   1.00800           0
       388 MEMB     3        POPS     H16Z     HAL3     0.900000E-01   1.00800           0
       389 MEMB     4        POPC     N        NTL     -0.600000       14.0070           0
       390 MEMB     4        POPC     C12      CTL2    -0.100000       12.0110           0
       391 MEMB     4        POPC     H12A     HL       0.250000       1.00800           0
       392 MEMB     4        POPC     H12B     HL       0.250000       1.00800           0
       393 MEMB     4        POPC     C13      CTL5    -0.350000       12.0110           0
       394 MEMB     4        POPC     H13A     HL       0.250000       1.00800           0
       395 MEMB     4        POPC     H13B     HL       0.250000       1.00800           0
       396 MEMB     4        POPC     H13C     HL       0.250000       1.00800           0
       397 MEMB     4        POPC     C14      CTL5    -0.350000       12.0110           0
       398 MEMB     4        POPC     H14A     HL       0.250000       1.00800           0
       399 MEMB     4        POPC     H14B     HL       0.250000       1.00800           0
       400 MEMB     4        POPC     H14C     HL       0.250000       1.00800           0
       401 MEMB     4        POPC     C15      CTL5    -0.350000       12.0110           0
       402 MEMB     4        POPC     H15A     HL       0.250000       1.00800           0
       403 MEMB     4        POPC     H15B     HL       0.250000       1.00800           0
       404 MEMB     4        POPC     H15C     HL       0.250000       1.00800           0
       405 MEMB     4        POPC     C11      CTL2    -0.800000E-01   12.0110           0
       406 MEMB     4        POPC     H11A     HAL2     0.900000E-01   1.00800           0
       407 MEMB     4        POPC     H11B     HAL2     0.900000E-01   1.00800           0
       408 MEMB     4        POPC     P        PL        1.50000       30.9740           0
       409 MEMB     4        POPC     O13      O2L     -0.780000       15.9994           0
       410 MEMB     4        POPC     O14      O2L     -0.780000       15.9994           0
       411 MEMB     4        POPC     O12      OSLP    -0.570000       15.9994           0
       412 MEMB     4        POPC     O11      OSLP    -0.570000       15.9994           0
       413 MEMB     4        POPC     C1       CTL2    -0.800000E-01   12.0110           0
       414 MEMB     4        POPC     HA       HAL2     0.900000E-01   1.00800           0
       415 MEMB     4        POPC     HB       HAL2     0.900000E-01   1.00800           0
       416 MEMB     4        POPC     C2       CTL1     0.170000       12.0110           0
       417 MEMB     4        POPC     HS       HAL1     0.900000E-01   1.00800           0
       418 MEMB     4        POPC     O21      OSL     -0.490000       15.9994           0
       419 MEMB     4        POPC     C21      CL       0.900000       12.0110           0
       420 MEMB     4        POPC     O22      OBL     -0.630000       15.9994           0
       421 MEMB     4        POPC     C22      CTL2    -0.220000       12.0110           0
       422 MEMB     4        POPC     H2R      HAL2     0.900000E-01   1.00800           0
       423 MEMB     4        POPC     H2S      HAL2     0.900000E-01   1.00800           0
       424 MEMB     4        POPC     C3       CTL2     0.800000E-01   12.0110           0
       425 MEMB     4        POPC     HX       HAL2     0.900000E-01   1.00800           0
       426 MEMB     4        POPC     HY       HAL2     0.900000E-01   1.00800           0
       427 MEMB     4        POPC     O31      OSL     -0.490000       15.9994           0
       428 MEMB     4        POPC     C31      CL       0.900000       12.0110           0
       429 MEMB     4        POPC     O32      OBL     -0.630000       15.9994           0
       430 MEMB     4        POPC     C32      CTL2    -0.220000       12.0110           0
       431 MEMB     4        POPC     H2X      HAL2     0.900000E-01   1.00800           0
       432 MEMB     4        POPC     H2Y      HAL2     0.900000E-01   1.00800           0
       433 MEMB     4        POPC     C23      CTL2    -0.180000       12.0110           0
       434 MEMB     4        POPC     H3R      HAL2     0.900000E-01   1.00800           0
       435 MEMB     4        POPC     H3S      HAL2     0.900000E-01   1.00800           0
       436 MEMB     4        POPC     C24      CTL2    -0.180000       12.0110           0
       437 MEMB     4        POPC     H4R      HAL2     0.900000E-01   1.00800           0
       438 MEMB     4        POPC     H4S      HAL2     0.900000E-01   1.00800           0
       439 MEMB     4        POPC     C25      CTL2    -0.180000       12.0110           0
       440 MEMB     4        POPC     H5R      HAL2     0.900000E-01   1.00800           0
       441 MEMB     4        POPC     H5S      HAL2     0.900000E-01   1.00800           0
       442 MEMB     4        POPC     C26      CTL2    -0.180000       12.0110           0
       443 MEMB     4        POPC     H6R      HAL2     0.900000E-01   1.00800           0
       444 MEMB     4        POPC     H6S      HAL2     0.900000E-01   1.00800           0
       445 MEMB     4        POPC     C27      CTL2    -0.180000       12.0110           0
       446 MEMB     4        POPC     H7R      HAL2     0.900000E-01   1.00800           0
       447 MEMB     4        POPC     H7S      HAL2     0.900000E-01   1.00800           0
       448 MEMB     4        POPC     C28      CTL2    -0.180000       12.0110           0
       449 MEMB     4        POPC     H8R      HAL2     0.900000E-01   1.00800           0
       450 MEMB     4        POPC     H8S      HAL2     0.900000E-01   1.00800           0
       451 MEMB     4        POPC     C29      CEL1    -0.150000       12.0110           0
       452 MEMB     4        POPC     H91      HEL1     0.150000       1.00800           0
       453 MEMB     4        POPC     C210     CEL1    -0.150000       12.0110           0
       454 MEMB     4        POPC     H101     HEL1     0.150000       1.00800           0
       455 MEMB     4        POPC     C211     CTL2    -0.180000       12.0110           0
       456 MEMB     4        POPC     H11R     HAL2     0.900000E-01   1.00800           0
       457 MEMB     4        POPC     H11S     HAL2     0.900000E-01   1.00800           0
       458 MEMB     4        POPC     C212     CTL2    -0.180000       12.0110           0
       459 MEMB     4        POPC     H12R     HAL2     0.900000E-01   1.00800           0
       460 MEMB     4        POPC     H12S     HAL2     0.900000E-01   1.00800           0
       461 MEMB     4        POPC     C213     CTL2    -0.180000       12.0110           0
       462 MEMB     4        POPC     H13R     HAL2     0.900000E-01   1.00800           0
       463 MEMB     4        POPC     H13S     HAL2     0.900000E-01   1.00800           0
       464 MEMB     4        POPC     C214     CTL2    -0.180000       12.0110           0
       465 MEMB     4        POPC     H14R     HAL2     0.900000E-01   1.00800           0
       466 MEMB     4        POPC     H14S     HAL2     0.900000E-01   1.00800           0
       467 MEMB     4        POPC     C215     CTL2    -0.180000       12.0110           0
       468 MEMB     4        POPC     H15R     HAL2     0.900000E-01   1.00800           0
       469 MEMB     4        POPC     H15S     HAL2     0.900000E-01   1.00800           0
       470 MEMB     4        POPC     C216     CTL2    -0.180000       12.0110           0
       471 MEMB     4        POPC     H16R     HAL2     0.900000E-01   1.00800           0
       472 MEMB     4        POPC     H16S     HAL2     0.900000E-01   1.00800           0
       473 MEMB     4        POPC     C217     CTL2    -0.180000       12.0110           0
       474 MEMB     4        POPC     H17R     HAL2     0.900000E-01   1.00800           0
       475 MEMB     4        POPC     H17S     HAL2     0.900000E-01   1.00800           0
       476 MEMB     4        POPC     C218     CTL3    -0.270000       12.0110           0
       477 MEMB     4        POPC     H18R     HAL3     0.900000E-01   1.00800           0
       478 MEMB     4        POPC     H18S     HAL3     0.900000E-01   1.00800           0
       479 MEMB     4        POPC     H18T     HAL3     0.900000E-01   1.00800           0
       480 MEMB     4        POPC     C33      CTL2    -0.180000       12.0110           0
       481 MEMB     4        POPC     H3X      HAL2     0.900000E-01   1.00800           0
       482 MEMB     4        POPC     H3Y      HAL2     0.900000E-01   1.00800           0
       483 MEMB     4        POPC     C34      CTL2    -0.180000       12.0110           0
       484 MEMB     4        POPC     H4X      HAL2     0.900000E-01   1.00800           0
       485 MEMB     4        POPC     H4Y      HAL2     0.900000E-01   1.00800           0
       486 MEMB     4        POPC     C35      CTL2    -0.180000       12.0110           0
       487 MEMB     4        POPC     H5X      HAL2     0.900000E-01   1.00800           0
       488 MEMB     4        POPC     H5Y      HAL2     0.900000E-01   1.00800           0
       489 MEMB     4        POPC     C36      CTL2    -0.180000       12.0110           0
       490 MEMB     4        POPC     H6X      HAL2     0.900000E-01   1.00800           0
       491 MEMB     4        POPC     H6Y      HAL2     0.900000E-01   1.00800           0
       492 MEMB     4        POPC     C37      CTL2    -0.180000       12.0110           0
       493 MEMB     4        POPC     H7X      HAL2     0.900000E-01   1.00800           0
       494 MEMB     4        POPC     H7Y      HAL2     0.900000E-01   1.00800           0
       495 MEMB     4        POPC     C38      CTL2    -0.180000       12.0110           0
       496 MEMB     4        POPC     H8X      HAL2     0.900000E-01   1.00800           0
       497 MEMB     4        POPC     H8Y      HAL2     0.900000E-01   1.00800           0
       498 MEMB     4        POPC     C39      CTL2    -0.180000       12.0110           0
       499 MEMB     4        POPC     H9X      HAL2     0.900000E-01   1.00800           0
       500 MEMB     4        POPC     H9Y      HAL2     0.900000E-01   1.00800           0
       501 MEMB     4        POPC     C310     CTL2    -0.180000       12.0110           0
       502 MEMB     4        POPC     H10X     HAL2     0.900000E-01   1.00800           0
       503 MEMB     4        POPC     H10Y     HAL2     0.900000E-01   1.00800           0
       504 MEMB     4        POPC     C311     CTL2    -0.180000       12.0110           0
       505 MEMB     4        POPC     H11X     HAL2     0.900000E-01   1.00800           0
       506 MEMB     4        POPC     H11Y     HAL2     0.900000E-01   1.00800           0
       507 MEMB     4        POPC     C312     CTL2    -0.180000       12.0110           0
       508 MEMB     4        POPC     H12X     HAL2     0.900000E-01   1.00800           0
       509 MEMB     4        POPC     H12Y     HAL2     0.900000E-01   1.00800           0
       510 MEMB     4        POPC     C313     CTL2    -0.180000       12.0110           0
       511 MEMB     4        POPC     H13X     HAL2     0.900000E-01   1.00800           0
       512 MEMB     4        POPC     H13Y     HAL2     0.900000E-01   1.00800           0
       513 MEMB     4        POPC     C314     CTL2    -0.180000       12.0110           0
       514 MEMB     4        POPC     H14X     HAL2     0.900000E-01   1.00800           0
       515 MEMB     4        POPC     H14Y     HAL2     0.900000E-01   1.00800           0
       516 MEMB     4        POPC     C315     CTL2    -0.180000       12.0110           0
       517 MEMB     4        POPC     H15X     HAL2     0.900000E-01   1.00800           0
       518 MEMB     4        POPC     H15Y     HAL2     0.900000E-01   1.00800           0
       519 MEMB     4        POPC     C316     CTL3    -0.270000       12.0110           0
       520 MEMB     4        POPC     H16X     HAL3     0.900000E-01   1.00800           0
       521 MEMB     4        POPC     H16Y     HAL3     0.900000E-01   1.00800           0
       522 MEMB     4        POPC     H16Z     HAL3     0.900000E-01   1.00800           0
       523 MEMB     5        POPC     N        NTL     -0.600000       14.0070           0
       524 MEMB     5        POPC     C12      CTL2    -0.100000       12.0110           0
       525 MEMB     5        POPC     H12A     HL       0.250000       1.00800           0
       526 MEMB     5        POPC     H12B     HL       0.250000       1.00800           0
       527 MEMB     5        POPC     C13      CTL5    -0.350000       12.0110           0
       528 MEMB     5        POPC     H13A     HL       0.250000       1.00800           0
       529 MEMB     5        POPC     H13B     HL       0.250000       1.00800           0
       530 MEMB     5        POPC     H13C     HL       0.250000       1.00800           0
       531 MEMB     5        POPC     C14      CTL5    -0.350000       12.0110           0
       532 MEMB     5        POPC     H14A     HL       0.250000       1.00800           0
       533 MEMB     5        POPC     H14B     HL       0.250000       1.00800           0
       534 MEMB     5        POPC     H14C     HL       0.250000       1.00800           0
       535 MEMB     5        POPC     C15      CTL5    -0.350000       12.0110           0
       536 MEMB     5        POPC     H15A     HL       0.250000       1.00800           0
       537 MEMB     5        POPC     H15B     HL       0.250000       1.00800           0
       538 MEMB     5        POPC     H15C     HL       0.250000       1.00800           0
       539 MEMB     5        POPC     C11      CTL2    -0.800000E-01   12.0110           0
       540 MEMB     5        POPC     H11A     HAL2     0.900000E-01   1.00800           0
       541 MEMB     5        POPC     H11B     HAL2     0.900000E-01   1.00800           0
       542 MEMB     5        POPC     P        PL        1.50000       30.9740           0
       543 MEMB     5        POPC     O13      O2L     -0.780000       15.9994           0
       544 MEMB     5        POPC     O14      O2L     -0.780000       15.9994           0
       545 MEMB     5        POPC     O12      OSLP    -0.570000       15.9994           0
       546 MEMB     5        POPC     O11      OSLP    -0.570000       15.9994           0
       547 MEMB     5        POPC     C1       CTL2    -0.800000E-01   12.0110           0
       548 MEMB     5        POPC     HA       HAL2     0.900000E-01   1.00800           0
       549 MEMB     5        POPC     HB       HAL2     0.900000E-01   1.00800           0
       550 MEMB     5        POPC     C2       CTL1     0.170000       12.0110           0
       551 MEMB     5        POPC     HS       HAL1     0.900000E-01   1.00800           0
       552 MEMB     5        POPC     O21      OSL     -0.490000       15.9994           0
       553 MEMB     5        POPC     C21      CL       0.900000       12.0110           0
       554 MEMB     5        POPC     O22      OBL     -0.630000       15.9994           0
       555 MEMB     5        POPC     C22      CTL2    -0.220000       12.0110           0
       556 MEMB     5        POPC     H2R      HAL2     0.900000E-01   1.00800           0
       557 MEMB     5        POPC     H2S      HAL2     0.900000E-01   1.00800           0
       558 MEMB     5        POPC     C3       CTL2     0.800000E-01   12.0110           0
       559 MEMB     5        POPC     HX       HAL2     0.900000E-01   1.00800           0
       560 MEMB     5        POPC     HY       HAL2     0.900000E-01   1.00800           0
       561 MEMB     5        POPC     O31      OSL     -0.490000       15.9994           0
       562 MEMB     5        POPC     C31      CL       0.900000       12.0110           0
       563 MEMB     5        POPC     O32      OBL     -0.630000       15.9994           0
       564 MEMB     5        POPC     C32      CTL2    -0.220000       12.0110           0
       565 MEMB     5        POPC     H2X      HAL2     0.900000E-01   1.00800           0
       566 MEMB     5        POPC     H2Y      HAL2     0.900000E-01   1.00800           0
       567 MEMB     5        POPC     C23      CTL2    -0.180000       12.0110           0
       568 MEMB     5        POPC     H3R      HAL2     0.900000E-01   1.00800           0
       569 MEMB     5        POPC     H3S      HAL2     0.900000E-01   1.00800           0
       570 MEMB     5        POPC     C24      CTL2    -0.180000       12.0110           0
       571 MEMB     5        POPC     H4R      HAL2     0.900000E-01   1.00800           0
       572 MEMB     5        POPC     H4S      HAL2     0.900000E-01   1.00800           0
       573 MEMB     5        POPC     C25      CTL2    -0.180000       12.0110           0
       574 MEMB     5        POPC     H5R      HAL2     0.900000E-01   1.00800           0
       575 MEMB     5        POPC     H5S      HAL2     0.900000E-01   1.00800           0
       576 MEMB     5        POPC     C26      CTL2    -0.180000       12.0110           0
       577 MEMB     5        POPC     H6R      HAL2     0.900000E-01   1.00800           0
       578 MEMB     5        POPC     H6S      HAL2     0.900000E-01   1.00800           0
       579 MEMB     5        POPC     C27      CTL2    -0.180000       12.0110           0
       580 MEMB     5        POPC     H7R      HAL2     0.900000E-01   1.00800           0
       581 MEMB     5        POPC     H7S      HAL2     0.900000E-01   1.00800           0
       582 MEMB     5        POPC     C28      CTL2    -0.180000       12.0110           0
       583 MEMB     5        POPC     H8R      HAL2     0.900000E-01   1.00800           0
       584 MEMB     5        POPC     H8S      HAL2     0.900000E-01   1.00800           0
       585 MEMB     5        POPC     C29      CEL1    -0.150000       12.0110           0
       586 MEMB     5        POPC     H91      HEL1     0.150000       1.00800           0
       587 MEMB     5        POPC     C210     CEL1    -0.150000       12.0110           0
       588 MEMB     5        POPC     H101     HEL1     0.150000       1.00800           0
       589 MEMB     5        POPC     C211     CTL2    -0.180000       12.0110           0
       590 MEMB     5        POPC     H11R     HAL2     0.900000E-01   1.00800           0
       591 MEMB     5        POPC     H11S     HAL2     0.900000E-01   1.00800           0
       592 MEMB     5        POPC     C212     CTL2    -0.180000       12.0110           0
       593 MEMB     5        POPC     H12R     HAL2     0.900000E-01   1.00800           0
       594 MEMB     5        POPC     H12S     HAL2     0.900000E-01   1.00800           0
       595 MEMB     5        POPC     C213     CTL2    -0.180000       12.0110           0
       596 MEMB     5        POPC     H13R     HAL2     0.900000E-01   1.00800           0
       597 MEMB     5        POPC     H13S     HAL2     0.900000E-01   1.00800           0
       598 MEMB     5        POPC     C214     CTL2    -0.180000       12.0110           0
       599 MEMB     5        POPC     H14R     HAL2     0.900000E-01   1.00800           0
       600 MEMB     5        POPC     H14S     HAL2     0.900000E-01   1.00800           0
       601 MEMB     5        POPC     C215     CTL2    -0.180000       12.0110           0
       602 MEMB     5        POPC     H15R     HAL2     0.900000E-01   1.00800           0
       603 MEMB     5        POPC     H15S     HAL2     0.900000E-01   1.00800           0
       604 MEMB     5        POPC     C216     CTL2    -0.180000       12.0110           0
       605 MEMB     5        POPC     H16R     HAL2     0.900000E-01   1.00800           0
       606 MEMB     5        POPC     H16S     HAL2     0.900000E-01   1.00800           0
       607 MEMB     5        POPC     C217     CTL2    -0.180000       12.0110           0
       608 MEMB     5        POPC     H17R     HAL2     0.900000E-01   1.00800           0
       609 MEMB     5        POPC     H17S     HAL2     0.900000E-01   1.00800           0
       610 MEMB     5        POPC     C218     CTL3    -0.270000       12.0110           0
       611 MEMB     5        POPC     H18R     HAL3     0.900000E-01   1.00800           0
       612 MEMB     5        POPC     H18S     HAL3     0.900000E-01   1.00800           0
       613 MEMB     5        POPC     H18T     HAL3     0.900000E-01   1.00800           0
       614 MEMB     5        POPC     C33      CTL2    -0.180000       12.0110           0
       615 MEMB     5        POPC     H3X      HAL2     0.900000E-01   1.00800           0
       616 MEMB     5        POPC     H3Y      HAL2     0.900000E-01   1.00800           0
       617 MEMB     5        POPC     C34      CTL2    -0.180000       12.0110           0
       618 MEMB     5        POPC     H4X      HAL2     0.900000E-01   1.00800           0
       619 MEMB     5        POPC     H4Y      HAL2     0.900000E-01   1.00800           0
       620 MEMB     5        POPC     C35      CTL2    -0.180000       12.0110           0
       621 MEMB     5        POPC     H5X      HAL2     0.900000E-01   1.00800           0
       622 MEMB     5        POPC     H5Y      HAL2     0.900000E-01   1.00800           0
       623 MEMB     5        POPC     C36      CTL2    -0.180000       12.0110           0
       624 MEMB     5        POPC     H6X      HAL2     0.900000E-01   1.00800           0
       625 MEMB     5        POPC     H6Y      HAL2     0.900000E-01   1.00800           0
       626 MEMB     5        POPC     C37      CTL2    -0.180000       12.0110           0
       627 MEMB     5        POPC     H7X      HAL2     0.900000E-01   1.00800           0
       628 MEMB     5        POPC     H7Y      HAL2     0.900000E-01   1.00800           0
       629 MEMB     5        POPC     C38      CTL2    -0.180000       12.0110           0
       630 MEMB     5        POPC     H8X      HAL2     0.900000E-01   1.00800           0
       631 MEMB     5        POPC     H8Y      HAL2     0.900000E-01   1.00800           0
       632 MEMB     5        POPC     C39      CTL2    -0.180000       12.0110           0
       633 MEMB     5        POPC     H9X      HAL2     0.900000E-01   1.00800           0
       634 MEMB     5        POPC     H9Y      HAL2     0.900000E-01   1.00800           0
       635 MEMB     5        POPC     C310     CTL2    -0.180000       12.0110           0
       636 MEMB     5        POPC     H10X     HAL2     0.900000E-01   1.00800           0
       637 MEMB     5        POPC     H10Y     HAL2     0.900000E-01   1.00800           0
       638 MEMB     5        POPC     C311     CTL2    -0.180000       12.0110           0
       639 MEMB     5        POPC     H11X     HAL2     0.900000E-01   1.00800           0
       640 MEMB     5        POPC     H11Y     HAL2     0.900000E-01   1.00800           0
       641 MEMB     5        POPC     C312     CTL2    -0.180000       12.0110           0
       642 MEMB     5        POPC     H12X     HAL2     0.900000E-01   1.00800           0
       643 MEMB     5        POPC     H12Y     HAL2     0.900000E-01   1.00800           0
       644 MEMB     5        POPC     C313     CTL2    -0.180000       12.0110           0
       645 MEMB     5        POPC     H13X     HAL2     0.900000E-01   1.00800           0
       646 MEMB     5        POPC     H13Y     HAL2     0.900000E-01   1.00800           0
       647 MEMB     5        POPC     C314     CTL2    -0.180000       12.0110           0
       648 MEMB     5        POPC     H14X     HAL2     0.900000E-01   1.00800           0
       649 MEMB     5        POPC     H14Y     HAL2     0.900000E-01   1.00800           0
       650 MEMB     5        POPC     C315     CTL2    -0.180000       12.0110           0
       651 MEMB     5        POPC     H15X     HAL2     0.900000E-01   1.00800           0
       652 MEMB     5        POPC     H15Y     HAL2     0.900000E-01   1.00800           0
       653 MEMB     5        POPC     C316     CTL3    -0.270000       12.0110           0
       654 MEMB     5        POPC     H16X     HAL3     0.900000E-01   1.00800           0
       655 MEMB     5        POPC     H16Y     HAL3     0.900000E-01   1.00800           0
       656 MEMB     5        POPC     H16Z     HAL3     0.900000E-01   1.00800           0
       657 MEMB     6        POPC     N        NTL     -0.600000       14.0070           0
       658 MEMB     6        POPC     C12      CTL2    -0.100000       12.0110           0
       659 MEMB     6        POPC     H12A     HL       0.250000       1.00800           0
       660 MEMB     6        POPC     H12B     HL       0.250000       1.00800           0
       661 MEMB     6        POPC     C13      CTL5    -0.350000       12.0110           0
       662 MEMB     6        POPC     H13A     HL       0.250000       1.00800           0
       663 MEMB     6        POPC     H13B     HL       0.250000       1.00800           0
       664 MEMB     6        POPC     H13C     HL       0.250000       1.00800           0
       665 MEMB     6        POPC     C14      CTL5    -0.350000       12.0110           0
       666 MEMB     6        POPC     H14A     HL       0.250000       1.00800           0
       667 MEMB     6        POPC     H14B     HL       0.250000       1.00800           0
       668 MEMB     6        POPC     H14C     HL       0.250000       1.00800           0
       669 MEMB     6        POPC     C15      CTL5    -0.350000       12.0110           0
       670 MEMB     6        POPC     H15A     HL       0.250000       1.00800           0
       671 MEMB     6        POPC     H15B     HL       0.250000       1.00800           0
       672 MEMB     6        POPC     H15C     HL       0.250000       1.00800           0
       673 MEMB     6        POPC     C11      CTL2    -0.800000E-01   12.0110           0
       674 MEMB     6        POPC     H11A     HAL2     0.900000E-01   1.00800           0
       675 MEMB     6        POPC     H11B     HAL2     0.900000E-01   1.00800           0
       676 MEMB     6        POPC     P        PL        1.50000       30.9740           0
       677 MEMB     6        POPC     O13      O2L     -0.780000       15.9994           0
       678 MEMB     6        POPC     O14      O2L     -0.780000       15.9994           0
       679 MEMB     6        POPC     O12      OSLP    -0.570000       15.9994           0
       680 MEMB     6        POPC     O11      OSLP    -0.570000       15.9994           0
       681 MEMB     6        POPC     C1       CTL2    -0.800000E-01   12.0110           0
       682 MEMB     6        POPC     HA       HAL2     0.900000E-01   1.00800           0
       683 MEMB     6        POPC     HB       HAL2     0.900000E-01   1.00800           0
       684 MEMB     6        POPC     C2       CTL1     0.170000       12.0110           0
       685 MEMB     6        POPC     HS       HAL1     0.900000E-01   1.00800           0
       686 MEMB     6        POPC     O21      OSL     -0.490000       15.9994           0
       687 MEMB     6        POPC     C21      CL       0.900000       12.0110           0
       688 MEMB     6        POPC     O22      OBL     -0.630000       15.9994           0
       689 MEMB     6        POPC     C22      CTL2    -0.220000       12.0110           0
       690 MEMB     6        POPC     H2R      HAL2     0.900000E-01   1.00800           0
       691 MEMB     6        POPC     H2S      HAL2     0.900000E-01   1.00800           0
       692 MEMB     6        POPC     C3       CTL2     0.800000E-01   12.0110           0
       693 MEMB     6        POPC     HX       HAL2     0.900000E-01   1.00800           0
       694 MEMB     6        POPC     HY       HAL2     0.900000E-01   1.00800           0
       695 MEMB     6        POPC     O31      OSL     -0.490000       15.9994           0
       696 MEMB     6        POPC     C31      CL       0.900000       12.0110           0
       697 MEMB     6        POPC     O32      OBL     -0.630000       15.9994           0
       698 MEMB     6        POPC     C32      CTL2    -0.220000       12.0110           0
       699 MEMB     6        POPC     H2X      HAL2     0.900000E-01   1.00800           0
       700 MEMB     6        POPC     H2Y      HAL2     0.900000E-01   1.00800           0
       701 MEMB     6        POPC     C23      CTL2    -0.180000       12.0110           0
       702 MEMB     6        POPC     H3R      HAL2     0.900000E-01   1.00800           0
       703 MEMB     6        POPC     H3S      HAL2     0.900000E-01   1.00800           0
       704 MEMB     6        POPC     C24      CTL2    -0.180000       12.0110           0
       705 MEMB     6        POPC     H4R      HAL2     0.900000E-01   1.00800           0
       706 MEMB     6        POPC     H4S      HAL2     0.900000E-01   1.00800           0
       707 MEMB     6        POPC     C25      CTL2    -0.180000       12.0110           0
       708 MEMB     6        POPC     H5R      HAL2     0.900000E-01   1.00800           0
       709 MEMB     6        POPC     H5S      HAL2     0.900000E-01   1.00800           0
       710 MEMB     6        POPC     C26      CTL2    -0.180000       12.0110           0
       711 MEMB     6        POPC     H6R      HAL2     0.900000E-01   1.00800           0
       712 MEMB     6        POPC     H6S      HAL2     0.900000E-01   1.00800           0
       713 MEMB     6        POPC     C27      CTL2    -0.180000       12.0110           0
       714 MEMB     6        POPC     H7R      HAL2     0.900000E-01   1.00800           0
       715 MEMB     6        POPC     H7S      HAL2     0.900000E-01   1.00800           0
       716 MEMB     6        POPC     C28      CTL2    -0.180000       12.0110           0
       717 MEMB     6        POPC     H8R      HAL2     0.900000E-01   1.00800           0
       718 MEMB     6        POPC     H8S      HAL2     0.900000E-01   1.00800           0
       719 MEMB     6        POPC     C29      CEL1    -0.150000       12.0110           0
       720 MEMB     6        POPC     H91      HEL1     0.150000       1.00800           0
       721 MEMB     6        POPC     C210     CEL1    -0.150000       12.0110           0
       722 MEMB     6        POPC     H101     HEL1     0.150000       1.00800           0
       723 MEMB     6        POPC     C211     CTL2    -0.180000       12.0110           0
       724 MEMB     6        POPC     H11R     HAL2     0.900000E-01   1.00800           0
       725 MEMB     6        POPC     H11S     HAL2     0.900000E-01   1.00800           0
       726 MEMB     6        POPC     C212     CTL2    -0.180000       12.0110           0
       727 MEMB     6        POPC     H12R     HAL2     0.900000E-01   1.00800           0
       728 MEMB     6        POPC     H12S     HAL2     0.900000E-01   1.00800           0
       729 MEMB     6        POPC     C213     CTL2    -0.180000       12.0110           0
       730 MEMB     6        POPC     H13R     HAL2     0.900000E-01   1.00800           0
       731 MEMB     6        POPC     H13S     HAL2     0.900000E-01   1.00800           0
       732 MEMB     6        POPC     C214     CTL2    -0.180000       12.0110           0
       733 MEMB     6        POPC     H14R     HAL2     0.900000E-01   1.00800           0
       734 MEMB     6        POPC     H14S     HAL2     0.900000E-01   1.00800           0
       735 MEMB     6        POPC     C215     CTL2    -0.180000       12.0110           0
       736 MEMB     6        POPC     H15R     HAL2     0.900000E-01   1.00800           0
       737 MEMB     6        POPC     H15S     HAL2     0.900000E-01   1.00800           0
       738 MEMB     6        POPC     C216     CTL2    -0.180000       12.0110           0
       739 MEMB     6        POPC     H16R     HAL2     0.900000E-01   1.00800           0
       740 MEMB     6        POPC     H16S     HAL2     0.900000E-01   1.00800           0
       741 MEMB     6        POPC     C217     CTL2    -0.180000       12.0110           0
       742 MEMB     6        POPC     H17R     HAL2     0.900000E-01   1.00800           0
       743 MEMB     6        POPC     H17S     HAL2     0.900000E-01   1.00800           0
       744 MEMB     6        POPC     C218     CTL3    -0.270000       12.0110           0
       745 MEMB     6        POPC     H18R     HAL3     0.900000E-01   1.00800           0
       746 MEMB     6        POPC     H18S     HAL3     0.900000E-01   1.00800           0
       747 MEMB     6        POPC     H18T     HAL3     0.900000E-01   1.00800           0
       748 MEMB     6        POPC     C33      CTL2    -0.180000       12.0110           0
       749 MEMB     6        POPC     H3X      HAL2     0.900000E-01   1.00800           0
       750 MEMB     6        POPC     H3Y      HAL2     0.900000E-01   1.00800           0
       751 MEMB     6        POPC     C34      CTL2    -0.180000       12.0110           0
       752 MEMB     6        POPC     H4X      HAL2     0.900000E-01   1.00800           0
       753 MEMB     6        POPC     H4Y      HAL2     0.900000E-01   1.00800           0
       754 MEMB     6        POPC     C35      CTL2    -0.180000       12.0110           0
       755 MEMB     6        POPC     H5X      HAL2     0.900000E-01   1.00800           0
       756 MEMB     6        POPC     H5Y      HAL2     0.900000E-01   1.00800           0
       757 MEMB     6        POPC     C36      CTL2    -0.180000       12.0110           0
       758 MEMB     6        POPC     H6X      HAL2     0.900000E-01   1.00800           0
       759 MEMB     6        POPC     H6Y      HAL2     0.900000E-01   1.00800           0
       760 MEMB     6        POPC     C37      CTL2    -0.180000       12.0110           0
       761 MEMB     6        POPC     H7X      HAL2     0.900000E-01   1.00800           0
       762 MEMB     6        POPC     H7Y      HAL2     0.900000E-01   1.00800           0
       763 MEMB     6        POPC     C38      CTL2    -0.180000       12.0110           0
       764 MEMB     6        POPC     H8X      HAL2     0.900000E-01   1.00800           0
       765 MEMB     6        POPC     H8Y      HAL2     0.900000E-01   1.00800           0
       766 MEMB     6        POPC     C39      CTL2    -0.180000       12.0110           0
       767 MEMB     6        POPC     H9X      HAL2     0.900000E-01   1.00800           0
       768 MEMB     6        POPC     H9Y      HAL2     0.900000E-01   1.00800           0
       769 MEMB     6        POPC     C310     CTL2    -0.180000       12.0110           0
       770 MEMB     6        POPC     H10X     HAL2     0.900000E-01   1.00800           0
       771 MEMB     6        POPC     H10Y     HAL2     0.900000E-01   1.00800           0
       772 MEMB     6        POPC     C311     CTL2    -0.180000       12.0110           0
       773 MEMB     6        POPC     H11X     HAL2     0.900000E-01   1.00800           0
       774 MEMB     6        POPC     H11Y     HAL2     0.900000E-01   1.00800           0
       775 MEMB     6        POPC     C312     CTL2    -0.180000       12.0110           0
       776 MEMB     6        POPC     H12X     HAL2     0.900000E-01   1.00800           0
       777 MEMB     6        POPC     H12Y     HAL2     0.900000E-01   1.00800           0
       778 MEMB     6        POPC     C313     CTL2    -0.180000       12.0110           0
       779 MEMB     6        POPC     H13X     HAL2     0.900000E-01   1.00800           0
       780 MEMB     6        POPC     H13Y     HAL2     0.900000E-01   1.00800           0
       781 MEMB     6        POPC     C314     CTL2    -0.180000       12.0110           0
       782 MEMB     6        POPC     H14X     HAL2     0.900000E-01   1.00800           0
       783 MEMB     6        POPC     H14Y     HAL2     0.900000E-01   1.00800           0
       784 MEMB     6        POPC     C315     CTL2    -0.180000       12.0110           0
       785 MEMB     6        POPC     H15X     HAL2     0.900000E-01   1.00800           0
       786 MEMB     6        POPC     H15Y     HAL2     0.900000E-01   1.00800           0
       787 MEMB     6        POPC     C316     CTL3    -0.270000       12.0110           0
       788 MEMB     6        POPC     H16X     HAL3     0.900000E-01   1.00800           0
       789 MEMB     6        POPC     H16Y     HAL3     0.900000E-01   1.00800           0
       790 MEMB     6        POPC     H16Z     HAL3     0.900000E-01   1.00800           0
       791 MEMB     7        POPS     N        NH3L    -0.300000       14.0070           0
       792 MEMB     7        POPS     HN1      HCL      0.330000       1.00800           0
       793 MEMB     7        POPS     HN2      HCL      0.330000       1.00800           0
       794 MEMB     7        POPS     HN3      HCL      0.330000       1.00800           0
       795 MEMB     7        POPS     C12      CTL1     0.210000       12.0110           0
       796 MEMB     7        POPS     H12A     HBL      0.100000       1.00800           0
       797 MEMB     7        POPS     C13      CCL      0.340000       12.0110           0
       798 MEMB     7        POPS     O13A     OCL     -0.670000       15.9994           0
       799 MEMB     7        POPS     O13B     OCL     -0.670000       15.9994           0
       800 MEMB     7        POPS     C11      CTL2    -0.800000E-01   12.0110           0
       801 MEMB     7        POPS     H11A     HAL2     0.900000E-01   1.00800           0
       802 MEMB     7        POPS     H11B     HAL2     0.900000E-01   1.00800           0
       803 MEMB     7        POPS     P        PL        1.50000       30.9740           0
       804 MEMB     7        POPS     O13      O2L     -0.780000       15.9994           0
       805 MEMB     7        POPS     O14      O2L     -0.780000       15.9994           0
       806 MEMB     7        POPS     O12      OSLP    -0.570000       15.9994           0
       807 MEMB     7        POPS     O11      OSLP    -0.570000       15.9994           0
       808 MEMB     7        POPS     C1       CTL2    -0.800000E-01   12.0110           0
       809 MEMB     7        POPS     HA       HAL2     0.900000E-01   1.00800           0
       810 MEMB     7        POPS     HB       HAL2     0.900000E-01   1.00800           0
       811 MEMB     7        POPS     C2       CTL1     0.170000       12.0110           0
       812 MEMB     7        POPS     HS       HAL1     0.900000E-01   1.00800           0
       813 MEMB     7        POPS     O21      OSL     -0.490000       15.9994           0
       814 MEMB     7        POPS     C21      CL       0.900000       12.0110           0
       815 MEMB     7        POPS     O22      OBL     -0.630000       15.9994           0
       816 MEMB     7        POPS     C22      CTL2    -0.220000       12.0110           0
       817 MEMB     7        POPS     H2R      HAL2     0.900000E-01   1.00800           0
       818 MEMB     7        POPS     H2S      HAL2     0.900000E-01   1.00800           0
       819 MEMB     7        POPS     C3       CTL2     0.800000E-01   12.0110           0
       820 MEMB     7        POPS     HX       HAL2     0.900000E-01   1.00800           0
       821 MEMB     7        POPS     HY       HAL2     0.900000E-01   1.00800           0
       822 MEMB     7        POPS     O31      OSL     -0.490000       15.9994           0
       823 MEMB     7        POPS     C31      CL       0.900000       12.0110           0
       824 MEMB     7        POPS     O32      OBL     -0.630000       15.9994           0
       825 MEMB     7        POPS     C32      CTL2    -0.220000       12.0110           0
       826 MEMB     7        POPS     H2X      HAL2     0.900000E-01   1.00800           0
       827 MEMB     7        POPS     H2Y      HAL2     0.900000E-01   1.00800           0
       828 MEMB     7        POPS     C23      CTL2    -0.180000       12.0110           0
       829 MEMB     7        POPS     H3R      HAL2     0.900000E-01   1.00800           0
       830 MEMB     7        POPS     H3S      HAL2     0.900000E-01   1.00800           0
       831 MEMB     7        POPS     C24      CTL2    -0.180000       12.0110           0
       832 MEMB     7        POPS     H4R      HAL2     0.900000E-01   1.00800           0
       833 MEMB     7        POPS     H4S      HAL2     0.900000E-01   1.00800           0
       834 MEMB     7        POPS     C25      CTL2    -0.180000       12.0110           0
       835 MEMB     7        POPS     H5R      HAL2     0.900000E-01   1.00800           0
       836 MEMB     7        POPS     H5S      HAL2     0.900000E-01   1.00800           0
       837 MEMB     7        POPS     C26      CTL2    -0.180000       12.0110           0
       838 MEMB     7        POPS     H6R      HAL2     0.900000E-01   1.00800           0
       839 MEMB     7        POPS     H6S      HAL2     0.900000E-01   1.00800           0
       840 MEMB     7        POPS     C27      CTL2    -0.180000       12.0110           0
       841 MEMB     7        POPS     H7R      HAL2     0.900000E-01   1.00800           0
       842 MEMB     7        POPS     H7S      HAL2     0.900000E-01   1.00800           0
       843 MEMB     7        POPS     C28      CTL2    -0.180000       12.0110           0
       844 MEMB     7        POPS     H8R      HAL2     0.900000E-01   1.00800           0
       845 MEMB     7        POPS     H8S      HAL2     0.900000E-01   1.00800           0
       846 MEMB     7        POPS     C29      CEL1    -0.150000       12.0110           0
       847 MEMB     7        POPS     H91      HEL1     0.150000       1.00800           0
       848 MEMB     7        POPS     C210     CEL1    -0.150000       12.0110           0
       849 MEMB     7        POPS     H101     HEL1     0.150000       1.00800           0
       850 MEMB     7        POPS     C211     CTL2    -0.180000       12.0110           0
       851 MEMB     7        POPS     H11R     HAL2     0.900000E-01   1.00800           0
       852 MEMB     7        POPS     H11S     HAL2     0.900000E-01   1.00800           0
       853 MEMB     7        POPS     C212     CTL2    -0.180000       12.0110           0
       854 MEMB     7        POPS     H12R     HAL2     0.900000E-01   1.00800           0
       855 MEMB     7        POPS     H12S     HAL2     0.900000E-01   1.00800           0
       856 MEMB     7        POPS     C213     CTL2    -0.180000       12.0110           0
       857 MEMB     7        POPS     H13R     HAL2     0.900000E-01   1.00800           0
       858 MEMB     7        POPS     H13S     HAL2     0.900000E-01   1.00800           0
       859 MEMB     7        POPS     C214     CTL2    -0.180000       12.0110           0
       860 MEMB     7        POPS     H14R     HAL2     0.900000E-01   1.00800           0
       861 MEMB     7        POPS     H14S     HAL2     0.900000E-01   1.00800           0
       862 MEMB     7        POPS     C215     CTL2    -0.180000       12.0110           0
       863 MEMB     7        POPS     H15R     HAL2     0.900000E-01   1.00800           0
       864 MEMB     7        POPS     H15S     HAL2     0.900000E-01   1.00800           0
       865 MEMB     7        POPS     C216     CTL2    -0.180000       12.0110           0
       866 MEMB     7        POPS     H16R     HAL2     0.900000E-01   1.00800           0
       867 MEMB     7        POPS     H16S     HAL2     0.900000E-01   1.00800           0
       868 MEMB     7        POPS     C217     CTL2    -0.180000       12.0110           0
       869 MEMB     7        POPS     H17R     HAL2     0.900000E-01   1.00800           0
       870 MEMB     7        POPS     H17S     HAL2     0.900000E-01   1.00800           0
       871 MEMB     7        POPS     C218     CTL3    -0.270000       12.0110           0
       872 MEMB     7        POPS     H18R     HAL3     0.900000E-01   1.00800           0
       873 MEMB     7        POPS     H18S     HAL3     0.900000E-01   1.00800           0
       874 MEMB     7        POPS     H18T     HAL3     0.900000E-01   1.00800           0
       875 MEMB     7        POPS     C33      CTL2    -0.180000       12.0110           0
       876 MEMB     7        POPS     H3X      HAL2     0.900000E-01   1.00800           0
       877 MEMB     7        POPS     H3Y      HAL2     0.900000E-01   1.00800           0
       878 MEMB     7        POPS     C34      CTL2    -0.180000       12.0110           0
       879 MEMB     7        POPS     H4X      HAL2     0.900000E-01   1.00800           0
       880 MEMB     7        POPS     H4Y      HAL2     0.900000E-01   1.00800           0
       881 MEMB     7        POPS     C35      CTL2    -0.180000       12.0110           0
       882 MEMB     7        POPS     H5X      HAL2     0.900000E-01   1.00800           0
       883 MEMB     7        POPS     H5Y      HAL2     0.900000E-01   1.00800           0
       884 MEMB     7        POPS     C36      CTL2    -0.180000       12.0110           0
       885 MEMB     7        POPS     H6X      HAL2     0.900000E-01   1.00800           0
       886 MEMB     7        POPS     H6Y      HAL2     0.900000E-01   1.00800           0
       887 MEMB     7        POPS     C37      CTL2    -0.180000       12.0110           0
       888 MEMB     7        POPS     H7X      HAL2     0.900000E-01   1.00800           0
       889 MEMB     7        POPS     H7Y      HAL2     0.900000E-01   1.00800           0
       890 MEMB     7        POPS     C38      CTL2    -0.180000       12.0110           0
       891 MEMB     7        POPS     H8X      HAL2     0.900000E-01   1.00800           0
       892 MEMB     7        POPS     H8Y      HAL2     0.900000E-01   1.00800           0
       893 MEMB     7        POPS     C39      CTL2    -0.180000       12.0110           0
       894 MEMB     7        POPS     H9X      HAL2     0.900000E-01   1.00800           0
       895 MEMB     7        POPS     H9Y      HAL2     0.900000E-01   1.00800           0
       896 MEMB     7        POPS     C310     CTL2    -0.180000       12.0110           0
       897 MEMB     7        POPS     H10X     HAL2     0.900000E-01   1.00800           0
       898 MEMB     7        POPS     H10Y     HAL2     0.900000E-01   1.00800           0
       899 MEMB     7        POPS     C311     CTL2    -0.180000       12.0110           0
       900 MEMB     7        POPS     H11X     HAL2     0.900000E-01   1.00800           0
       901 MEMB     7        POPS     H11Y     HAL2     0.900000E-01   1.00800           0
       902 MEMB     7        POPS     C312     CTL2    -0.180000       12.0110           0
       903 MEMB     7        POPS     H12X     HAL2     0.900000E-01   1.00800           0
       904 MEMB     7        POPS     H12Y     HAL2     0.900000E-01   1.00800           0
       905 MEMB     7        POPS     C313     CTL2    -0.180000       12.0110           0
       906 MEMB     7        POPS     H13X     HAL2     0.900000E-01   1.00800           0
       907 MEMB     7        POPS     H13Y     HAL2     0.900000E-01   1.00800           0
       908 MEMB     7        POPS     C314     CTL2    -0.180000       12.0110           0
       909 MEMB     7        POPS     H14X     HAL2     0.900000E-01   1.00800           0
       910 MEMB     7        POPS     H14Y     HAL2     0.900000E-01   1.00800           0
       911 MEMB     7        POPS     C315     CTL2    -0.180000       12.0110           0
       912 MEMB     7        POPS     H15X     HAL2     0.900000E-01   1.00800           0
       913 MEMB     7        POPS     H15Y     HAL2     0.900000E-01   1.00800           0
       914 MEMB     7        POPS     C316     CTL3    -0.270000       12.0110           0
       915 MEMB     7        POPS     H16X     HAL3     0.900000E-01   1.00800           0
       916 MEMB     7        POPS     H16Y     HAL3     0.900000E-01   1.00800           0
       917 MEMB     7        POPS     H16Z     HAL3     0.900000E-01   1.00800           0
       918 MEMB     8        POPC     N        NTL     -0.600000       14.0070           0
       919 MEMB     8        POPC     C12      CTL2    -0.100000       12.0110           0
       920 MEMB     8        POPC     H12A     HL       0.250000       1.00800           0
       921 MEMB     8        POPC     H12B     HL       0.250000       1.00800           0
       922 MEMB     8        POPC     C13      CTL5    -0.350000       12.0110           0
       923 MEMB     8        POPC     H13A     HL       0.250000       1.00800           0
       924 MEMB     8        POPC     H13B     HL       0.250000       1.00800           0
       925 MEMB     8        POPC     H13C     HL       0.250000       1.00800           0
       926 MEMB     8        POPC     C14      CTL5    -0.350000       12.0110           0
       927 MEMB     8        POPC     H14A     HL       0.250000       1.00800           0
       928 MEMB     8        POPC     H14B     HL       0.250000       1.00800           0
       929 MEMB     8        POPC     H14C     HL       0.250000       1.00800           0
       930 MEMB     8        POPC     C15      CTL5    -0.350000       12.0110           0
       931 MEMB     8        POPC     H15A     HL       0.250000       1.00800           0
       932 MEMB     8        POPC     H15B     HL       0.250000       1.00800           0
       933 MEMB     8        POPC     H15C     HL       0.250000       1.00800           0
       934 MEMB     8        POPC     C11      CTL2    -0.800000E-01   12.0110           0
       935 MEMB     8        POPC     H11A     HAL2     0.900000E-01   1.00800           0
       936 MEMB     8        POPC     H11B     HAL2     0.900000E-01   1.00800           0
       937 MEMB     8        POPC     P        PL        1.50000       30.9740           0
       938 MEMB     8        POPC     O13      O2L     -0.780000       15.9994           0
       939 MEMB     8        POPC     O14      O2L     -0.780000       15.9994           0
       940 MEMB     8        POPC     O12      OSLP    -0.570000       15.9994           0
       941 MEMB     8        POPC     O11      OSLP    -0.570000       15.9994           0
       942 MEMB     8        POPC     C1       CTL2    -0.800000E-01   12.0110           0
       943 MEMB     8        POPC     HA       HAL2     0.900000E-01   1.00800           0
       944 MEMB     8        POPC     HB       HAL2     0.900000E-01   1.00800           0
       945 MEMB     8        POPC     C2       CTL1     0.170000       12.0110           0
       946 MEMB     8        POPC     HS       HAL1     0.900000E-01   1.00800           0
       947 MEMB     8        POPC     O21      OSL     -0.490000       15.9994           0
       948 MEMB     8        POPC     C21      CL       0.900000       12.0110           0
       949 MEMB     8        POPC     O22      OBL     -0.630000       15.9994           0
       950 MEMB     8        POPC     C22      CTL2    -0.220000       12.0110           0
       951 MEMB     8        POPC     H2R      HAL2     0.900000E-01   1.00800           0
       952 MEMB     8        POPC     H2S      HAL2     0.900000E-01   1.00800           0
       953 MEMB     8        POPC     C3       CTL2     0.800000E-01   12.0110           0
       954 MEMB     8        POPC     HX       HAL2     0.900000E-01   1.00800           0
       955 MEMB     8        POPC     HY       HAL2     0.900000E-01   1.00800           0
       956 MEMB     8        POPC     O31      OSL     -0.490000       15.9994           0
       957 MEMB     8        POPC     C31      CL       0.900000       12.0110           0
       958 MEMB     8        POPC     O32      OBL     -0.630000       15.9994           0
       959 MEMB     8        POPC     C32      CTL2    -0.220000       12.0110           0
       960 MEMB     8        POPC     H2X      HAL2     0.900000E-01   1.00800           0
       961 MEMB     8        POPC     H2Y      HAL2     0.900000E-01   1.00800           0
       962 MEMB     8        POPC     C23      CTL2    -0.180000       12.0110           0
       963 MEMB     8        POPC     H3R      HAL2     0.900000E-01   1.00800           0
       964 MEMB     8        POPC     H3S      HAL2     0.900000E-01   1.00800           0
       965 MEMB     8        POPC     C24      CTL2    -0.180000       12.0110           0
       966 MEMB     8        POPC     H4R      HAL2     0.900000E-01   1.00800           0
       967 MEMB     8        POPC     H4S      HAL2     0.900000E-01   1.00800           0
       968 MEMB     8        POPC     C25      CTL2    -0.180000       12.0110           0
       969 MEMB     8        POPC     H5R      HAL2     0.900000E-01   1.00800           0
       970 MEMB     8        POPC     H5S      HAL2     0.900000E-01   1.00800           0
       971 MEMB     8        POPC     C26      CTL2    -0.180000       12.0110           0
       972 MEMB     8        POPC     H6R      HAL2     0.900000E-01   1.00800           0
       973 MEMB     8        POPC     H6S      HAL2     0.900000E-01   1.00800           0
       974 MEMB     8        POPC     C27      CTL2    -0.180000       12.0110           0
       975 MEMB     8        POPC     H7R      HAL2     0.900000E-01   1.00800           0
       976 MEMB     8        POPC     H7S      HAL2     0.900000E-01   1.00800           0
       977 MEMB     8        POPC     C28      CTL2    -0.180000       12.0110           0
       978 MEMB     8        POPC     H8R      HAL2     0.900000E-01   1.00800           0
       979 MEMB     8        POPC     H8S      HAL2     0.900000E-01   1.00800           0
       980 MEMB     8        POPC     C29      CEL1    -0.150000       12.0110           0
       981 MEMB     8        POPC     H91      HEL1     0.150000       1.00800           0
       982 MEMB     8        POPC     C210     CEL1    -0.150000       12.0110           0
       983 MEMB     8        POPC     H101     HEL1     0.150000       1.00800           0
       984 MEMB     8        POPC     C211     CTL2    -0.180000       12.0110           0
       985 MEMB     8        POPC     H11R     HAL2     0.900000E-01   1.00800           0
       986 MEMB     8        POPC     H11S     HAL2     0.900000E-01   1.00800           0
       987 MEMB     8        POPC     C212     CTL2    -0.180000       12.0110           0
       988 MEMB     8        POPC     H12R     HAL2     0.900000E-01   1.00800           0
       989 MEMB     8        POPC     H12S     HAL2     0.900000E-01   1.00800           0
       990 MEMB     8        POPC     C213     CTL2    -0.180000       12.0110           0
       991 MEMB     8        POPC     H13R     HAL2     0.900000E-01   1.00800           0
       992 MEMB     8        POPC     H13S     HAL2     0.900000E-01   1.00800           0
       993 MEMB     8        POPC     C214     CTL2    -0.180000       12.0110           0
       994 MEMB     8        POPC     H14R     HAL2     0.900000E-01   1.00800           0
       995 MEMB     8        POPC     H14S     HAL2     0.900000E-01   1.00800           0
       996 MEMB     8        POPC     C215     CTL2    -0.180000       12.0110           0
       997 MEMB     8        POPC     H15R     HAL2     0.900000E-01   1.00800           0
       998 MEMB     8        POPC     H15S     HAL2     0.900000E-01   1.00800           0
       999 MEMB     8        POPC     C216     CTL2    -0.180000       12.0110           0
      1000 MEMB     8        POPC     H16R     HAL2     0.900000E-01   1.00800           0
      1001 MEMB     8        POPC     H16S     HAL2     0.900000E-01   1.00800           0
      1002 MEMB     8        POPC     C217     CTL2    -0.180000       12.0110           0
      1003 MEMB     8        POPC     H17R     HAL2     0.900000E-01   1.00800           0
      1004 MEMB     8        POPC     H17S     HAL2     0.900000E-01   1.00800           0
      1005 MEMB     8        POPC     C218     CTL3    -0.270000       12.0110           0
      1006 MEMB     8        POPC     H18R     HAL3     0.900000E-01   1.00800           0
      1007 MEMB     8        POPC     H18S     HAL3     0.900000E-01   1.00800           0
      1008 MEMB     8        POPC     H18T     HAL3     0.900000E-01   1.00800           0
      1009 MEMB     8        POPC     C33      CTL2    -0.180000       12.0110           0
      1010 MEMB     8        POPC     H3X      HAL2     0.900000E-01   1.00800           0
      1011 MEMB     8        POPC     H3Y      HAL2     0.900000E-01   1.00800           0
      1012 MEMB     8        POPC     C34      CTL2    -0.180000       12.0110           0
      1013 MEMB     8        POPC     H4X      HAL2     0.900000E-01   1.00800           0
      1014 MEMB     8        POPC     H4Y      HAL2     0.900000E-01   1.00800           0
      1015 MEMB     8        POPC     C35      CTL2    -0.180000       12.0110           0
      1016 MEMB     8        POPC     H5X      HAL2     0.900000E-01   1.00800           0
      1017 MEMB     8        POPC     H5Y      HAL2     0.900000E-01   1.00800           0
      1018 MEMB     8        POPC     C36      CTL2    -0.180000       12.0110           0
      1019 MEMB     8        POPC     H6X      HAL2     0.900000E-01   1.00800           0
      1020 MEMB     8        POPC     H6Y      HAL2     0.900000E-01   1.00800           0
      1021 MEMB     8        POPC     C37      CTL2    -0.180000       12.0110           0
      1022 MEMB     8        POPC     H7X      HAL2     0.900000E-01   1.00800           0
      1023 MEMB     8        POPC     H7Y      HAL2     0.900000E-01   1.00800           0
      1024 MEMB     8        POPC     C38      CTL2    -0.180000       12.0110           0
      1025 MEMB     8        POPC     H8X      HAL2     0.900000E-01   1.00800           0
      1026 MEMB     8        POPC     H8Y      HAL2     0.900000E-01   1.00800           0
      1027 MEMB     8        POPC     C39      CTL2    -0.180000       12.0110           0
      1028 MEMB     8        POPC     H9X      HAL2     0.900000E-01   1.00800           0
      1029 MEMB     8        POPC     H9Y      HAL2     0.900000E-01   1.00800           0
      1030 MEMB     8        POPC     C310     CTL2    -0.180000       12.0110           0
      1031 MEMB     8        POPC     H10X     HAL2     0.900000E-01   1.00800           0
      1032 MEMB     8        POPC     H10Y     HAL2     0.900000E-01   1.00800           0
      1033 MEMB     8        POPC     C311     CTL2    -0.180000       12.0110           0
      1034 MEMB     8        POPC     H11X     HAL2     0.900000E-01   1.00800           0
      1035 MEMB     8        POPC     H11Y     HAL2     0.900000E-01   1.00800           0
      1036 MEMB     8        POPC     C312     CTL2    -0.180000       12.0110           0
      1037 MEMB     8        POPC     H12X     HAL2     0.900000E-01   1.00800           0
      1038 MEMB     8        POPC     H12Y     HAL2     0.900000E-01   1.00800           0
      1039 MEMB     8        POPC     C313     CTL2    -0.180000       12.0110           0
      1040 MEMB     8        POPC     H13X     HAL2     0.900000E-01   1.00800           0
      1041 MEMB     8        POPC     H13Y     HAL2     0.900000E-01   1.00800           0
      1042 MEMB     8        POPC     C314     CTL2    -0.180000       12.0110           0
      1043 MEMB     8        POPC     H14X     HAL2     0.900000E-01   1.00800           0
      1044 MEMB     8        POPC     H14Y     HAL2     0.900000E-01   1.00800           0
      1045 MEMB     8        POPC     C315     CTL2    -0.180000       12.0110           0
      1046 MEMB     8        POPC     H15X     HAL2     0.900000E-01   1.00800           0
      1047 MEMB     8        POPC     H15Y     HAL2     0.900000E-01   1.00800           0
      1048 MEMB     8        POPC     C316     CTL3    -0.270000       12.0110           0
      1049 MEMB     8        POPC     H16X     HAL3     0.900000E-01   1.00800           0
      1050 MEMB     8        POPC     H16Y     HAL3     0.900000E-01   1.00800           0
      1051 MEMB     8        POPC     H16Z     HAL3     0.900000E-01   1.00800           0
      1052 MEMB     9        POPC     N        NTL     -0.600000       14.0070           0
      1053 MEMB     9        POPC     C12      CTL2    -0.100000       12.0110           0
      1054 MEMB     9        POPC     H12A     HL       0.250000       1.00800           0
      1055 MEMB     9        POPC     H12B     HL       0.250000       1.00800           0
      1056 MEMB     9        POPC     C13      CTL5    -0.350000       12.0110           0
      1057 MEMB     9        POPC     H13A     HL       0.250000       1.00800           0
      1058 MEMB     9        POPC     H13B     HL       0.250000       1.00800           0
      1059 MEMB     9        POPC     H13C     HL       0.250000       1.00800           0
      1060 MEMB     9        POPC     C14      CTL5    -0.350000       12.0110           0
      1061 MEMB     9        POPC     H14A     HL       0.250000       1.00800           0
      1062 MEMB     9        POPC     H14B     HL       0.250000       1.00800           0
      1063 MEMB     9        POPC     H14C     HL       0.250000       1.00800           0
      1064 MEMB     9        POPC     C15      CTL5    -0.350000       12.0110           0
      1065 MEMB     9        POPC     H15A     HL       0.250000       1.00800           0
      1066 MEMB     9        POPC     H15B     HL       0.250000       1.00800           0
      1067 MEMB     9        POPC     H15C     HL       0.250000       1.00800           0
      1068 MEMB     9        POPC     C11      CTL2    -0.800000E-01   12.0110           0
      1069 MEMB     9        POPC     H11A     HAL2     0.900000E-01   1.00800           0
      1070 MEMB     9        POPC     H11B     HAL2     0.900000E-01   1.00800           0
      1071 MEMB     9        POPC     P        PL        1.50000       30.9740           0
      1072 MEMB     9        POPC     O13      O2L     -0.780000       15.9994           0
      1073 MEMB     9        POPC     O14      O2L     -0.780000       15.9994           0
      1074 MEMB     9        POPC     O12      OSLP    -0.570000       15.9994           0
      1075 MEMB     9        POPC     O11      OSLP    -0.570000       15.9994           0
      1076 MEMB     9        POPC     C1       CTL2    -0.800000E-01   12.0110           0
      1077 MEMB     9        POPC     HA       HAL2     0.900000E-01   1.00800           0
      1078 MEMB     9        POPC     HB       HAL2     0.900000E-01   1.00800           0
      1079 MEMB     9        POPC     C2       CTL1     0.170000       12.0110           0
      1080 MEMB     9        POPC     HS       HAL1     0.900000E-01   1.00800           0
      1081 MEMB     9        POPC     O21      OSL     -0.490000       15.9994           0
      1082 MEMB     9        POPC     C21      CL       0.900000       12.0110           0
      1083 MEMB     9        POPC     O22      OBL     -0.630000       15.9994           0
      1084 MEMB     9        POPC     C22      CTL2    -0.220000       12.0110           0
      1085 MEMB     9        POPC     H2R      HAL2     0.900000E-01   1.00800           0
      1086 MEMB     9        POPC     H2S      HAL2     0.900000E-01   1.00800           0
      1087 MEMB     9        POPC     C3       CTL2     0.800000E-01   12.0110           0
      1088 MEMB     9        POPC     HX       HAL2     0.900000E-01   1.00800           0
      1089 MEMB     9        POPC     HY       HAL2     0.900000E-01   1.00800           0
      1090 MEMB     9        POPC     O31      OSL     -0.490000       15.9994           0
      1091 MEMB     9        POPC     C31      CL       0.900000       12.0110           0
      1092 MEMB     9        POPC     O32      OBL     -0.630000       15.9994           0
      1093 MEMB     9        POPC     C32      CTL2    -0.220000       12.0110           0
      1094 MEMB     9        POPC     H2X      HAL2     0.900000E-01   1.00800           0
      1095 MEMB     9        POPC     H2Y      HAL2     0.900000E-01   1.00800           0
      1096 MEMB     9        POPC     C23      CTL2    -0.180000       12.0110           0
      1097 MEMB     9        POPC     H3R      HAL2     0.900000E-01   1.00800           0
      1098 MEMB     9        POPC     H3S      HAL2     0.900000E-01   1.00800           0
      1099 MEMB     9        POPC     C24      CTL2    -0.180000       12.0110           0
      1100 MEMB     9        POPC     H4R      HAL2     0.900000E-01   1.00800           0
      1101 MEMB     9        POPC     H4S      HAL2     0.900000E-01   1.00800           0
      1102 MEMB     9        POPC     C25      CTL2    -0.180000       12.0110           0
      1103 MEMB     9        POPC     H5R      HAL2     0.900000E-01   1.00800           0
      1104 MEMB     9        POPC     H5S      HAL2     0.900000E-01   1.00800           0
      1105 MEMB     9        POPC     C26      CTL2    -0.180000       12.0110           0
      1106 MEMB     9        POPC     H6R      HAL2     0.900000E-01   1.00800           0
      1107 MEMB     9        POPC     H6S      HAL2     0.900000E-01   1.00800           0
      1108 MEMB     9        POPC     C27      CTL2    -0.180000       12.0110           0
      1109 MEMB     9        POPC     H7R      HAL2     0.900000E-01   1.00800           0
      1110 MEMB     9        POPC     H7S      HAL2     0.900000E-01   1.00800           0
      1111 MEMB     9        POPC     C28      CTL2    -0.180000       12.0110           0
      1112 MEMB     9        POPC     H8R      HAL2     0.900000E-01   1.00800           0
      1113 MEMB     9        POPC     H8S      HAL2     0.900000E-01   1.00800           0
      1114 MEMB     9        POPC     C29      CEL1    -0.150000       12.0110           0
      1115 MEMB     9        POPC     H91      HEL1     0.150000       1.00800           0
      1116 MEMB     9        POPC     C210     CEL1    -0.150000       12.0110           0
      1117 MEMB     9        POPC     H101     HEL1     0.150000       1.00800           0
      1118 MEMB     9        POPC     C211     CTL2    -0.180000       12.0110           0
      1119 MEMB     9        POPC     H11R     HAL2     0.900000E-01   1.00800           0
      1120 MEMB     9        POPC     H11S     HAL2     0.900000E-01   1.00800           0
      1121 MEMB     9        POPC     C212     CTL2    -0.180000       12.0110           0
      1122 MEMB     9        POPC     H12R     HAL2     0.900000E-01   1.00800           0
      1123 MEMB     9        POPC     H12S     HAL2     0.900000E-01   1.00800           0
      1124 MEMB     9        POPC     C213     CTL2    -0.180000       12.0110           0
      1125 MEMB     9        POPC     H13R     HAL2     0.900000E-01   1.00800           0
      1126 MEMB     9        POPC     H13S     HAL2     0.900000E-01   1.00800           0
      1127 MEMB     9        POPC     C214     CTL2    -0.180000       12.0110           0
      1128 MEMB     9        POPC     H14R     HAL2     0.900000E-01   1.00800           0
      1129 MEMB     9        POPC     H14S     HAL2     0.900000E-01   1.00800           0
      1130 MEMB     9        POPC     C215     CTL2    -0.180000       12.0110           0
      1131 MEMB     9        POPC     H15R     HAL2     0.900000E-01   1.00800           0
      1132 MEMB     9        POPC     H15S     HAL2     0.900000E-01   1.00800           0
      1133 MEMB     9        POPC     C216     CTL2    -0.180000       12.0110           0
      1134 MEMB     9        POPC     H16R     HAL2     0.900000E-01   1.00800           0
      1135 MEMB     9        POPC     H16S     HAL2     0.900000E-01   1.00800           0
      1136 MEMB     9        POPC     C217     CTL2    -0.180000       12.0110           0
      1137 MEMB     9        POPC     H17R     HAL2     0.900000E-01   1.00800           0
      1138 MEMB     9        POPC     H17S     HAL2     0.900000E-01   1.00800           0
      1139 MEMB     9        POPC     C218     CTL3    -0.270000       12.0110           0
      1140 MEMB     9        POPC     H18R     HAL3     0.900000E-01   1.00800           0
      1141 MEMB     9        POPC     H18S     HAL3     0.900000E-01   1.00800           0
      1142 MEMB     9        POPC     H18T     HAL3     0.900000E-01   1.00800           0
      1143 MEMB     9        POPC     C33      CTL2    -0.180000       12.0110           0
      1144 MEMB     9        POPC     H3X      HAL2     0.900000E-01   1.00800           0
      1145 MEMB     9        POPC     H3Y      HAL2     0.900000E-01   1.00800           0
      1146 MEMB     9        POPC     C34      CTL2    -0.180000       12.0110           0
      1147 MEMB     9        POPC     H4X      HAL2     0.900000E-01   1.00800           0
      1148 MEMB     9        POPC     H4Y      HAL2     0.900000E-01   1.00800           0
      1149 MEMB     9        POPC     C35      CTL2    -0.180000       12.0110           0
      1150 MEMB     9        POPC     H5X      HAL2     0.900000E-01   1.00800           0
      1151 MEMB     9        POPC     H5Y      HAL2     0.900000E-01   1.00800           0
      1152 MEMB     9        POPC     C36      CTL2    -0.180000       12.0110           0
      1153 MEMB     9        POPC     H6X      HAL2     0.900000E-01   1.00800           0
      1154 MEMB     9        POPC     H6Y      HAL2     0.900000E-01   1.00800           0
      1155 MEMB     9        POPC     C37      CTL2    -0.180000       12.0110           0
      1156 MEMB     9        POPC     H7X      HAL2     0.900000E-01   1.00800           0
      1157 MEMB     9        POPC     H7Y      HAL2     0.900000E-01   1.00800           0
      1158 MEMB     9        POPC     C38      CTL2    -0.180000       12.0110           0
      1159 MEMB     9        POPC     H8X      HAL2     0.900000E-01   1.00800           0
      1160 MEMB     9        POPC     H8Y      HAL2     0.900000E-01   1.00800           0
      1161 MEMB     9        POPC     C39      CTL2    -0.180000       12.0110           0
      1162 MEMB     9        POPC     H9X      HAL2     0.900000E-01   1.00800           0
      1163 MEMB     9        POPC     H9Y      HAL2     0.900000E-01   1.00800           0
      1164 MEMB     9        POPC     C310     CTL2    -0.180000       12.0110           0
      1165 MEMB     9        POPC     H10X     HAL2     0.900000E-01   1.00800           0
      1166 MEMB     9        POPC     H10Y     HAL2     0.900000E-01   1.00800           0
      1167 MEMB     9        POPC     C311     CTL2    -0.180000       12.0110           0
      1168 MEMB     9        POPC     H11X     HAL2     0.900000E-01   1.00800           0
      1169 MEMB     9        POPC     H11Y     HAL2     0.900000E-01   1.00800           0
      1170 MEMB     9        POPC     C312     CTL2    -0.180000       12.0110           0
      1171 MEMB     9        POPC     H12X     HAL2     0.900000E-01   1.00800           0
      1172 MEMB     9        POPC     H12Y     HAL2     0.900000E-01   1.00800           0
      1173 MEMB     9        POPC     C313     CTL2    -0.180000       12.0110           0
      1174 MEMB     9        POPC     H13X     HAL2     0.900000E-01   1.00800           0
      1175 MEMB     9        POPC     H13Y     HAL2     0.900000E-01   1.00800           0
      1176 MEMB     9        POPC     C314     CTL2    -0.180000       12.0110           0
      1177 MEMB     9        POPC     H14X     HAL2     0.900000E-01   1.00800           0
      1178 MEMB     9        POPC     H14Y     HAL2     0.900000E-01   1.00800           0
      1179 MEMB     9        POPC     C315     CTL2    -0.180000       12.0110           0
      1180 MEMB     9        POPC     H15X     HAL2     0.900000E-01   1.00800           0
      1181 MEMB     9        POPC     H15Y     HAL2     0.900000E-01   1.00800           0
      1182 MEMB     9        POPC     C316     CTL3    -0.270000       12.0110           0
      1183 MEMB     9        POPC     H16X     HAL3     0.900000E-01   1.00800           0
      1184 MEMB     9        POPC     H16Y     HAL3     0.900000E-01   1.00800           0
      1185 MEMB     9        POPC     H16Z     HAL3     0.900000E-01   1.00800           0
      1186 MEMB     10       POPC     N        NTL     -0.600000       14.0070           0
      1187 MEMB     10       POPC     C12      CTL2    -0.100000       12.0110           0
      1188 MEMB     10       POPC     H12A     HL       0.250000       1.00800           0
      1189 MEMB     10       POPC     H12B     HL       0.250000       1.00800           0
      1190 MEMB     10       POPC     C13      CTL5    -0.350000       12.0110           0
      1191 MEMB     10       POPC     H13A     HL       0.250000       1.00800           0
      1192 MEMB     10       POPC     H13B     HL       0.250000       1.00800           0
      1193 MEMB     10       POPC     H13C     HL       0.250000       1.00800           0
      1194 MEMB     10       POPC     C14      CTL5    -0.350000       12.0110           0
      1195 MEMB     10       POPC     H14A     HL       0.250000       1.00800           0
      1196 MEMB     10       POPC     H14B     HL       0.250000       1.00800           0
      1197 MEMB     10       POPC     H14C     HL       0.250000       1.00800           0
      1198 MEMB     10       POPC     C15      CTL5    -0.350000       12.0110           0
      1199 MEMB     10       POPC     H15A     HL       0.250000       1.00800           0
      1200 MEMB     10       POPC     H15B     HL       0.250000       1.00800           0
      1201 MEMB     10       POPC     H15C     HL       0.250000       1.00800           0
      1202 MEMB     10       POPC     C11      CTL2    -0.800000E-01   12.0110           0
      1203 MEMB     10       POPC     H11A     HAL2     0.900000E-01   1.00800           0
      1204 MEMB     10       POPC     H11B     HAL2     0.900000E-01   1.00800           0
      1205 MEMB     10       POPC     P        PL        1.50000       30.9740           0
      1206 MEMB     10       POPC     O13      O2L     -0.780000       15.9994           0
      1207 MEMB     10       POPC     O14      O2L     -0.780000       15.9994           0
      1208 MEMB     10       POPC     O12      OSLP    -0.570000       15.9994           0
      1209 MEMB     10       POPC     O11      OSLP    -0.570000       15.9994           0
      1210 MEMB     10       POPC     C1       CTL2    -0.800000E-01   12.0110           0
      1211 MEMB     10       POPC     HA       HAL2     0.900000E-01   1.00800           0
      1212 MEMB     10       POPC     HB       HAL2     0.900000E-01   1.00800           0
      1213 MEMB     10       POPC     C2       CTL1     0.170000       12.0110           0
      1214 MEMB     10       POPC     HS       HAL1     0.900000E-01   1.00800           0
      1215 MEMB     10       POPC     O21      OSL     -0.490000       15.9994           0
      1216 MEMB     10       POPC     C21      CL       0.900000       12.0110           0
      1217 MEMB     10       POPC     O22      OBL     -0.630000       15.9994           0
      1218 MEMB     10       POPC     C22      CTL2    -0.220000       12.0110           0
      1219 MEMB     10       POPC     H2R      HAL2     0.900000E-01   1.00800           0
      1220 MEMB     10       POPC     H2S      HAL2     0.900000E-01   1.00800           0
      1221 MEMB     10       POPC     C3       CTL2     0.800000E-01   12.0110           0
      1222 MEMB     10       POPC     HX       HAL2     0.900000E-01   1.00800           0
      1223 MEMB     10       POPC     HY       HAL2     0.900000E-01   1.00800           0
      1224 MEMB     10       POPC     O31      OSL     -0.490000       15.9994           0
      1225 MEMB     10       POPC     C31      CL       0.900000       12.0110           0
      1226 MEMB     10       POPC     O32      OBL     -0.630000       15.9994           0
      1227 MEMB     10       POPC     C32      CTL2    -0.220000       12.0110           0
      1228 MEMB     10       POPC     H2X      HAL2     0.900000E-01   1.00800           0
      1229 MEMB     10       POPC     H2Y      HAL2     0.900000E-01   1.00800           0
      1230 MEMB     10       POPC     C23      CTL2    -0.180000       12.0110           0
      1231 MEMB     10       POPC     H3R      HAL2     0.900000E-01   1.00800           0
      1232 MEMB     10       POPC     H3S      HAL2     0.900000E-01   1.00800           0
      1233 MEMB     10       POPC     C24      CTL2    -0.180000       12.0110           0
      1234 MEMB     10       POPC     H4R      HAL2     0.900000E-01   1.00800           0
      1235 MEMB     10       POPC     H4S      HAL2     0.900000E-01   1.00800           0
      1236 MEMB     10       POPC     C25      CTL2    -0.180000       12.0110           0
      1237 MEMB     10       POPC     H5R      HAL2     0.900000E-01   1.00800           0
      1238 MEMB     10       POPC     H5S      HAL2     0.900000E-01   1.00800           0
      1239 MEMB     10       POPC     C26      CTL2    -0.180000       12.0110           0
      1240 MEMB     10       POPC     H6R      HAL2     0.900000E-01   1.00800           0
      1241 MEMB     10       POPC     H6S      HAL2     0.900000E-01   1.00800           0
      1242 MEMB     10       POPC     C27      CTL2    -0.180000       12.0110           0
      1243 MEMB     10       POPC     H7R      HAL2     0.900000E-01   1.00800           0
      1244 MEMB     10       POPC     H7S      HAL2     0.900000E-01   1.00800           0
      1245 MEMB     10       POPC     C28      CTL2    -0.180000       12.0110           0
      1246 MEMB     10       POPC     H8R      HAL2     0.900000E-01   1.00800           0
      1247 MEMB     10       POPC     H8S      HAL2     0.900000E-01   1.00800           0
      1248 MEMB     10       POPC     C29      CEL1    -0.150000       12.0110           0
      1249 MEMB     10       POPC     H91      HEL1     0.150000       1.00800           0
      1250 MEMB     10       POPC     C210     CEL1    -0.150000       12.0110           0
      1251 MEMB     10       POPC     H101     HEL1     0.150000       1.00800           0
      1252 MEMB     10       POPC     C211     CTL2    -0.180000       12.0110           0
      1253 MEMB     10       POPC     H11R     HAL2     0.900000E-01   1.00800           0
      1254 MEMB     10       POPC     H11S     HAL2     0.900000E-01   1.00800           0
      1255 MEMB     10       POPC     C212     CTL2    -0.180000       12.0110           0
      1256 MEMB     10       POPC     H12R     HAL2     0.900000E-01   1.00800           0
      1257 MEMB     10       POPC     H12S     HAL2     0.900000E-01   1.00800           0
      1258 MEMB     10       POPC     C213     CTL2    -0.180000       12.0110           0
      1259 MEMB     10       POPC     H13R     HAL2     0.900000E-01   1.00800           0
      1260 MEMB     10       POPC     H13S     HAL2     0.900000E-01   1.00800           0
      1261 MEMB     10       POPC     C214     CTL2    -0.180000       12.0110           0
      1262 MEMB     10       POPC     H14R     HAL2     0.900000E-01   1.00800           0
      1263 MEMB     10       POPC     H14S     HAL2     0.900000E-01   1.00800           0
      1264 MEMB     10       POPC     C215     CTL2    -0.180000       12.0110           0
      1265 MEMB     10       POPC     H15R     HAL2     0.900000E-01   1.00800           0
      1266 MEMB     10       POPC     H15S     HAL2     0.900000E-01   1.00800           0
      1267 MEMB     10       POPC     C216     CTL2    -0.180000       12.0110           0
      1268 MEMB     10       POPC     H16R     HAL2     0.900000E-01   1.00800           0
      1269 MEMB     10       POPC     H16S     HAL2     0.900000E-01   1.00800           0
      1270 MEMB     10       POPC     C217     CTL2    -0.180000       12.0110           0
      1271 MEMB     10       POPC     H17R     HAL2     0.900000E-01   1.00800           0
      1272 MEMB     10       POPC     H17S     HAL2     0.900000E-01   1.00800           0
      1273 MEMB     10       POPC     C218     CTL3    -0.270000       12.0110           0
      1274 MEMB     10       POPC     H18R     HAL3     0.900000E-01   1.00800           0
      1275 MEMB     10       POPC     H18S     HAL3     0.900000E-01   1.00800           0
      1276 MEMB     10       POPC     H18T     HAL3     0.900000E-01   1.00800           0
      1277 MEMB     10       POPC     C33      CTL2    -0.180000       12.0110           0
      1278 MEMB     10       POPC     H3X      HAL2     0.900000E-01   1.00800           0
      1279 MEMB     10       POPC     H3Y      HAL2     0.900000E-01   1.00800           0
      1280 MEMB     10       POPC     C34      CTL2    -0.180000       12.0110           0
      1281 MEMB     10       POPC     H4X      HAL2     0.900000E-01   1.00800           0
      1282 MEMB     10       POPC     H4Y      HAL2     0.900000E-01   1.00800           0
      1283 MEMB     10       POPC     C35      CTL2    -0.180000       12.0110           0
      1284 MEMB     10       POPC     H5X      HAL2     0.900000E-01   1.00800           0
      1285 MEMB     10       POPC     H5Y      HAL2     0.900000E-01   1.00800           0
      1286 MEMB     10       POPC     C36      CTL2    -0.180000       12.0110           0
      1287 MEMB     10       POPC     H6X      HAL2     0.900000E-01   1.00800           0
      1288 MEMB     10       POPC     H6Y      HAL2     0.900000E-01   1.00800           0
      1289 MEMB     10       POPC     C37      CTL2    -0.180000       12.0110           0
      1290 MEMB     10       POPC     H7X      HAL2     0.900000E-01   1.00800           0
      1291 MEMB     10       POPC     H7Y      HAL2     0.900000E-01   1.00800           0
      1292 MEMB     10       POPC     C38      CTL2    -0.180000       12.0110           0
      1293 MEMB     10       POPC     H8X      HAL2     0.900000E-01   1.00800           0
      1294 MEMB     10       POPC     H8Y      HAL2     0.900000E-01   1.00800           0
      1295 MEMB     10       POPC     C39      CTL2    -0.180000       12.0110           0
      1296 MEMB     10       POPC     H9X      HAL2     0.900000E-01   1.00800           0
      1297 MEMB     10       POPC     H9Y      HAL2     0.900000E-01   1.00800           0
      1298 MEMB     10       POPC     C310     CTL2    -0.180000       12.0110           0
      1299 MEMB     10       POPC     H10X     HAL2     0.900000E-01   1.00800           0
      1300 MEMB     10       POPC     H10Y     HAL2     0.900000E-01   1.00800           0
      1301 MEMB     10       POPC     C311     CTL2    -0.180000       12.0110           0
      1302 MEMB     10       POPC     H11X     HAL2     0.900000E-01   1.00800           0
      1303 MEMB     10       POPC     H11Y     HAL2     0.900000E-01   1.00800           0
      1304 MEMB     10       POPC     C312     CTL2    -0.180000       12.0110           0
      1305 MEMB     10       POPC     H12X     HAL2     0.900000E-01   1.00800           0
      1306 MEMB     10       POPC     H12Y     HAL2     0.900000E-01   1.00800           0
      1307 MEMB     10       POPC     C313     CTL2    -0.180000       12.0110           0
      1308 MEMB     10       POPC     H13X     HAL2     0.900000E-01   1.00800           0
      1309 MEMB     10       POPC     H13Y     HAL2     0.900000E-01   1.00800           0
      1310 MEMB     10       POPC     C314     CTL2    -0.180000       12.0110           0
      1311 MEMB     10       POPC     H14X     HAL2     0.900000E-01   1.00800           0
      1312 MEMB     10       POPC     H14Y     HAL2     0.900000E-01   1.00800           0
      1313 MEMB     10       POPC     C315     CTL2    -0.180000       12.0110           0
      1314 MEMB     10       POPC     H15X     HAL2     0.900000E-01   1.00800           0
      1315 MEMB     10       POPC     H15Y     HAL2     0.900000E-01   1.00800           0
      1316 MEMB     10       POPC     C316     CTL3    -0.270000       12.0110           0
      1317 MEMB     10       POPC     H16X     HAL3     0.900000E-01   1.00800           0
      1318 MEMB     10       POPC     H16Y     HAL3     0.900000E-01   1.00800           0
      1319 MEMB     10       POPC     H16Z     HAL3     0.900000E-01   1.00800           0
      1320 MEMB     11       POPC     N        NTL     -0.600000       14.0070           0
      1321 MEMB     11       POPC     C12      CTL2    -0.100000       12.0110           0
      1322 MEMB     11       POPC     H12A     HL       0.250000       1.00800           0
      1323 MEMB     11       POPC     H12B     HL       0.250000       1.00800           0
      1324 MEMB     11       POPC     C13      CTL5    -0.350000       12.0110           0
      1325 MEMB     11       POPC     H13A     HL       0.250000       1.00800           0
      1326 MEMB     11       POPC     H13B     HL       0.250000       1.00800           0
      1327 MEMB     11       POPC     H13C     HL       0.250000       1.00800           0
      1328 MEMB     11       POPC     C14      CTL5    -0.350000       12.0110           0
      1329 MEMB     11       POPC     H14A     HL       0.250000       1.00800           0
      1330 MEMB     11       POPC     H14B     HL       0.250000       1.00800           0
      1331 MEMB     11       POPC     H14C     HL       0.250000       1.00800           0
      1332 MEMB     11       POPC     C15      CTL5    -0.350000       12.0110           0
      1333 MEMB     11       POPC     H15A     HL       0.250000       1.00800           0
      1334 MEMB     11       POPC     H15B     HL       0.250000       1.00800           0
      1335 MEMB     11       POPC     H15C     HL       0.250000       1.00800           0
      1336 MEMB     11       POPC     C11      CTL2    -0.800000E-01   12.0110           0
      1337 MEMB     11       POPC     H11A     HAL2     0.900000E-01   1.00800           0
      1338 MEMB     11       POPC     H11B     HAL2     0.900000E-01   1.00800           0
      1339 MEMB     11       POPC     P        PL        1.50000       30.9740           0
      1340 MEMB     11       POPC     O13      O2L     -0.780000       15.9994           0
      1341 MEMB     11       POPC     O14      O2L     -0.780000       15.9994           0
      1342 MEMB     11       POPC     O12      OSLP    -0.570000       15.9994           0
      1343 MEMB     11       POPC     O11      OSLP    -0.570000       15.9994           0
      1344 MEMB     11       POPC     C1       CTL2    -0.800000E-01   12.0110           0
      1345 MEMB     11       POPC     HA       HAL2     0.900000E-01   1.00800           0
      1346 MEMB     11       POPC     HB       HAL2     0.900000E-01   1.00800           0
      1347 MEMB     11       POPC     C2       CTL1     0.170000       12.0110           0
      1348 MEMB     11       POPC     HS       HAL1     0.900000E-01   1.00800           0
      1349 MEMB     11       POPC     O21      OSL     -0.490000       15.9994           0
      1350 MEMB     11       POPC     C21      CL       0.900000       12.0110           0
      1351 MEMB     11       POPC     O22      OBL     -0.630000       15.9994           0
      1352 MEMB     11       POPC     C22      CTL2    -0.220000       12.0110           0
      1353 MEMB     11       POPC     H2R      HAL2     0.900000E-01   1.00800           0
      1354 MEMB     11       POPC     H2S      HAL2     0.900000E-01   1.00800           0
      1355 MEMB     11       POPC     C3       CTL2     0.800000E-01   12.0110           0
      1356 MEMB     11       POPC     HX       HAL2     0.900000E-01   1.00800           0
      1357 MEMB     11       POPC     HY       HAL2     0.900000E-01   1.00800           0
      1358 MEMB     11       POPC     O31      OSL     -0.490000       15.9994           0
      1359 MEMB     11       POPC     C31      CL       0.900000       12.0110           0
      1360 MEMB     11       POPC     O32      OBL     -0.630000       15.9994           0
      1361 MEMB     11       POPC     C32      CTL2    -0.220000       12.0110           0
      1362 MEMB     11       POPC     H2X      HAL2     0.900000E-01   1.00800           0
      1363 MEMB     11       POPC     H2Y      HAL2     0.900000E-01   1.00800           0
      1364 MEMB     11       POPC     C23      CTL2    -0.180000       12.0110           0
      1365 MEMB     11       POPC     H3R      HAL2     0.900000E-01   1.00800           0
      1366 MEMB     11       POPC     H3S      HAL2     0.900000E-01   1.00800           0
      1367 MEMB     11       POPC     C24      CTL2    -0.180000       12.0110           0
      1368 MEMB     11       POPC     H4R      HAL2     0.900000E-01   1.00800           0
      1369 MEMB     11       POPC     H4S      HAL2     0.900000E-01   1.00800           0
      1370 MEMB     11       POPC     C25      CTL2    -0.180000       12.0110           0
      1371 MEMB     11       POPC     H5R      HAL2     0.900000E-01   1.00800           0
      1372 MEMB     11       POPC     H5S      HAL2     0.900000E-01   1.00800           0
      1373 MEMB     11       POPC     C26      CTL2    -0.180000       12.0110           0
      1374 MEMB     11       POPC     H6R      HAL2     0.900000E-01   1.00800           0
      1375 MEMB     11       POPC     H6S      HAL2     0.900000E-01   1.00800           0
      1376 MEMB     11       POPC     C27      CTL2    -0.180000       12.0110           0
      1377 MEMB     11       POPC     H7R      HAL2     0.900000E-01   1.00800           0
      1378 MEMB     11       POPC     H7S      HAL2     0.900000E-01   1.00800           0
      1379 MEMB     11       POPC     C28      CTL2    -0.180000       12.0110           0
      1380 MEMB     11       POPC     H8R      HAL2     0.900000E-01   1.00800           0
      1381 MEMB     11       POPC     H8S      HAL2     0.900000E-01   1.00800           0
      1382 MEMB     11       POPC     C29      CEL1    -0.150000       12.0110           0
      1383 MEMB     11       POPC     H91      HEL1     0.150000       1.00800           0
      1384 MEMB     11       POPC     C210     CEL1    -0.150000       12.0110           0
      1385 MEMB     11       POPC     H101     HEL1     0.150000       1.00800           0
      1386 MEMB     11       POPC     C211     CTL2    -0.180000       12.0110           0
      1387 MEMB     11       POPC     H11R     HAL2     0.900000E-01   1.00800           0
      1388 MEMB     11       POPC     H11S     HAL2     0.900000E-01   1.00800           0
      1389 MEMB     11       POPC     C212     CTL2    -0.180000       12.0110           0
      1390 MEMB     11       POPC     H12R     HAL2     0.900000E-01   1.00800           0
      1391 MEMB     11       POPC     H12S     HAL2     0.900000E-01   1.00800           0
      1392 MEMB     11       POPC     C213     CTL2    -0.180000       12.0110           0
      1393 MEMB     11       POPC     H13R     HAL2     0.900000E-01   1.00800           0
      1394 MEMB     11       POPC     H13S     HAL2     0.900000E-01   1.00800           0
      1395 MEMB     11       POPC     C214     CTL2    -0.180000       12.0110           0
      1396 MEMB     11       POPC     H14R     HAL2     0.900000E-01   1.00800           0
      1397 MEMB     11       POPC     H14S     HAL2     0.900000E-01   1.00800           0
      1398 MEMB     11       POPC     C215     CTL2    -0.180000       12.0110           0
      1399 MEMB     11       POPC     H15R     HAL2     0.900000E-01   1.00800           0
      1400 MEMB     11       POPC     H15S     HAL2     0.900000E-01   1.00800           0
      1401 MEMB     11       POPC     C216     CTL2    -0.180000       12.0110           0
      1402 MEMB     11       POPC     H16R     HAL2     0.900000E-01   1.00800           0
      1403 MEMB     11       POPC     H16S     HAL2     0.900000E-01   1.00800           0
      1404 MEMB     11       POPC     C217     CTL2    -0.180000       12.0110           0
      1405 MEMB     11       POPC     H17R     HAL2     0.900000E-01   1.00800           0
      1406 MEMB     11       POPC     H17S     HAL2     0.900000E-01   1.00800           0
      1407 MEMB     11       POPC     C218     CTL3    -0.270000       12.0110           0
      1408 MEMB     11       POPC     H18R     HAL3     0.900000E-01   1.00800           0
      1409 MEMB     11       POPC     H18S     HAL3     0.900000E-01   1.00800           0
      1410 MEMB     11       POPC     H18T     HAL3     0.900000E-01   1.00800           0
      1411 MEMB     11       POPC     C33      CTL2    -0.180000       12.0110           0
      1412 MEMB     11       POPC     H3X      HAL2     0.900000E-01   1.00800           0
      1413 MEMB     11       POPC     H3Y      HAL2     0.900000E-01   1.00800           0
      1414 MEMB     11       POPC     C34      CTL2    -0.180000       12.0110           0
      1415 MEMB     11       POPC     H4X      HAL2     0.900000E-01   1.00800           0
      1416 MEMB     11       POPC     H4Y      HAL2     0.900000E-01   1.00800           0
      1417 MEMB     11       POPC     C35      CTL2    -0.180000       12.0110           0
      1418 MEMB     11       POPC     H5X      HAL2     0.900000E-01   1.00800           0
      1419 MEMB     11       POPC     H5Y      HAL2     0.900000E-01   1.00800           0
      1420 MEMB     11       POPC     C36      CTL2    -0.180000       12.0110           0
      1421 MEMB     11       POPC     H6X      HAL2     0.900000E-01   1.00800           0
      1422 MEMB     11       POPC     H6Y      HAL2     0.900000E-01   1.00800           0
      1423 MEMB     11       POPC     C37      CTL2    -0.180000       12.0110           0
      1424 MEMB     11       POPC     H7X      HAL2     0.900000E-01   1.00800           0
      1425 MEMB     11       POPC     H7Y      HAL2     0.900000E-01   1.00800           0
      1426 MEMB     11       POPC     C38      CTL2    -0.180000       12.0110           0
      1427 MEMB     11       POPC     H8X      HAL2     0.900000E-01   1.00800           0
      1428 MEMB     11       POPC     H8Y      HAL2     0.900000E-01   1.00800           0
      1429 MEMB     11       POPC     C39      CTL2    -0.180000       12.0110           0
      1430 MEMB     11       POPC     H9X      HAL2     0.900000E-01   1.00800           0
      1431 MEMB     11       POPC     H9Y      HAL2     0.900000E-01   1.00800           0
      1432 MEMB     11       POPC     C310     CTL2    -0.180000       12.0110           0
      1433 MEMB     11       POPC     H10X     HAL2     0.900000E-01   1.00800           0
      1434 MEMB     11       POPC     H10Y     HAL2     0.900000E-01   1.00800           0
      1435 MEMB     11       POPC     C311     CTL2    -0.180000       12.0110           0
      1436 MEMB     11       POPC     H11X     HAL2     0.900000E-01   1.00800           0
      1437 MEMB     11       POPC     H11Y     HAL2     0.900000E-01   1.00800           0
      1438 MEMB     11       POPC     C312     CTL2    -0.180000       12.0110           0
      1439 MEMB     11       POPC     H12X     HAL2     0.900000E-01   1.00800           0
      1440 MEMB     11       POPC     H12Y     HAL2     0.900000E-01   1.00800           0
      1441 MEMB     11       POPC     C313     CTL2    -0.180000       12.0110           0
      1442 MEMB     11       POPC     H13X     HAL2     0.900000E-01   1.00800           0
      1443 MEMB     11       POPC     H13Y     HAL2     0.900000E-01   1.00800           0
      1444 MEMB     11       POPC     C314     CTL2    -0.180000       12.0110           0
      1445 MEMB     11       POPC     H14X     HAL2     0.900000E-01   1.00800           0
      1446 MEMB     11       POPC     H14Y     HAL2     0.900000E-01   1.00800           0
      1447 MEMB     11       POPC     C315     CTL2    -0.180000       12.0110           0
      1448 MEMB     11       POPC     H15X     HAL2     0.900000E-01   1.00800           0
      1449 MEMB     11       POPC     H15Y     HAL2     0.900000E-01   1.00800           0
      1450 MEMB     11       POPC     C316     CTL3    -0.270000       12.0110           0
      1451 MEMB     11       POPC     H16X     HAL3     0.900000E-01   1.00800           0
      1452 MEMB     11       POPC     H16Y     HAL3     0.900000E-01   1.00800           0
      1453 MEMB     11       POPC     H16Z     HAL3     0.900000E-01   1.00800           0
      1454 MEMB     12       POPC     N        NTL     -0.600000       14.0070           0
      1455 MEMB     12       POPC     C12      CTL2    -0.100000       12.0110           0
      1456 MEMB     12       POPC     H12A     HL       0.250000       1.00800           0
      1457 MEMB     12       POPC     H12B     HL       0.250000       1.00800           0
      1458 MEMB     12       POPC     C13      CTL5    -0.350000       12.0110           0
      1459 MEMB     12       POPC     H13A     HL       0.250000       1.00800           0
      1460 MEMB     12       POPC     H13B     HL       0.250000       1.00800           0
      1461 MEMB     12       POPC     H13C     HL       0.250000       1.00800           0
      1462 MEMB     12       POPC     C14      CTL5    -0.350000       12.0110           0
      1463 MEMB     12       POPC     H14A     HL       0.250000       1.00800           0
      1464 MEMB     12       POPC     H14B     HL       0.250000       1.00800           0
      1465 MEMB     12       POPC     H14C     HL       0.250000       1.00800           0
      1466 MEMB     12       POPC     C15      CTL5    -0.350000       12.0110           0
      1467 MEMB     12       POPC     H15A     HL       0.250000       1.00800           0
      1468 MEMB     12       POPC     H15B     HL       0.250000       1.00800           0
      1469 MEMB     12       POPC     H15C     HL       0.250000       1.00800           0
      1470 MEMB     12       POPC     C11      CTL2    -0.800000E-01   12.0110           0
      1471 MEMB     12       POPC     H11A     HAL2     0.900000E-01   1.00800           0
      1472 MEMB     12       POPC     H11B     HAL2     0.900000E-01   1.00800           0
      1473 MEMB     12       POPC     P        PL        1.50000       30.9740           0
      1474 MEMB     12       POPC     O13      O2L     -0.780000       15.9994           0
      1475 MEMB     12       POPC     O14      O2L     -0.780000       15.9994           0
      1476 MEMB     12       POPC     O12      OSLP    -0.570000       15.9994           0
      1477 MEMB     12       POPC     O11      OSLP    -0.570000       15.9994           0
      1478 MEMB     12       POPC     C1       CTL2    -0.800000E-01   12.0110           0
      1479 MEMB     12       POPC     HA       HAL2     0.900000E-01   1.00800           0
      1480 MEMB     12       POPC     HB       HAL2     0.900000E-01   1.00800           0
      1481 MEMB     12       POPC     C2       CTL1     0.170000       12.0110           0
      1482 MEMB     12       POPC     HS       HAL1     0.900000E-01   1.00800           0
      1483 MEMB     12       POPC     O21      OSL     -0.490000       15.9994           0
      1484 MEMB     12       POPC     C21      CL       0.900000       12.0110           0
      1485 MEMB     12       POPC     O22      OBL     -0.630000       15.9994           0
      1486 MEMB     12       POPC     C22      CTL2    -0.220000       12.0110           0
      1487 MEMB     12       POPC     H2R      HAL2     0.900000E-01   1.00800           0
      1488 MEMB     12       POPC     H2S      HAL2     0.900000E-01   1.00800           0
      1489 MEMB     12       POPC     C3       CTL2     0.800000E-01   12.0110           0
      1490 MEMB     12       POPC     HX       HAL2     0.900000E-01   1.00800           0
      1491 MEMB     12       POPC     HY       HAL2     0.900000E-01   1.00800           0
      1492 MEMB     12       POPC     O31      OSL     -0.490000       15.9994           0
      1493 MEMB     12       POPC     C31      CL       0.900000       12.0110           0
      1494 MEMB     12       POPC     O32      OBL     -0.630000       15.9994           0
      1495 MEMB     12       POPC     C32      CTL2    -0.220000       12.0110           0
      1496 MEMB     12       POPC     H2X      HAL2     0.900000E-01   1.00800           0
      1497 MEMB     12       POPC     H2Y      HAL2     0.900000E-01   1.00800           0
      1498 MEMB     12       POPC     C23      CTL2    -0.180000       12.0110           0
      1499 MEMB     12       POPC     H3R      HAL2     0.900000E-01   1.00800           0
      1500 MEMB     12       POPC     H3S      HAL2     0.900000E-01   1.00800           0
      1501 MEMB     12       POPC     C24      CTL2    -0.180000       12.0110           0
      1502 MEMB     12       POPC     H4R      HAL2     0.900000E-01   1.00800           0
      1503 MEMB     12       POPC     H4S      HAL2     0.900000E-01   1.00800           0
      1504 MEMB     12       POPC     C25      CTL2    -0.180000       12.0110           0
      1505 MEMB     12       POPC     H5R      HAL2     0.900000E-01   1.00800           0
      1506 MEMB     12       POPC     H5S      HAL2     0.900000E-01   1.00800           0
      1507 MEMB     12       POPC     C26      CTL2    -0.180000       12.0110           0
      1508 MEMB     12       POPC     H6R      HAL2     0.900000E-01   1.00800           0
      1509 MEMB     12       POPC     H6S      HAL2     0.900000E-01   1.00800           0
      1510 MEMB     12       POPC     C27      CTL2    -0.180000       12.0110           0
      1511 MEMB     12       POPC     H7R      HAL2     0.900000E-01   1.00800           0
      1512 MEMB     12       POPC     H7S      HAL2     0.900000E-01   1.00800           0
      1513 MEMB     12       POPC     C28      CTL2    -0.180000       12.0110           0
      1514 MEMB     12       POPC     H8R      HAL2     0.900000E-01   1.00800           0
      1515 MEMB     12       POPC     H8S      HAL2     0.900000E-01   1.00800           0
      1516 MEMB     12       POPC     C29      CEL1    -0.150000       12.0110           0
      1517 MEMB     12       POPC     H91      HEL1     0.150000       1.00800           0
      1518 MEMB     12       POPC     C210     CEL1    -0.150000       12.0110           0
      1519 MEMB     12       POPC     H101     HEL1     0.150000       1.00800           0
      1520 MEMB     12       POPC     C211     CTL2    -0.180000       12.0110           0
      1521 MEMB     12       POPC     H11R     HAL2     0.900000E-01   1.00800           0
      1522 MEMB     12       POPC     H11S     HAL2     0.900000E-01   1.00800           0
      1523 MEMB     12       POPC     C212     CTL2    -0.180000       12.0110           0
      1524 MEMB     12       POPC     H12R     HAL2     0.900000E-01   1.00800           0
      1525 MEMB     12       POPC     H12S     HAL2     0.900000E-01   1.00800           0
      1526 MEMB     12       POPC     C213     CTL2    -0.180000       12.0110           0
      1527 MEMB     12       POPC     H13R     HAL2     0.900000E-01   1.00800           0
      1528 MEMB     12       POPC     H13S     HAL2     0.900000E-01   1.00800           0
      1529 MEMB     12       POPC     C214     CTL2    -0.180000       12.0110           0
      1530 MEMB     12       POPC     H14R     HAL2     0.900000E-01   1.00800           0
      1531 MEMB     12       POPC     H14S     HAL2     0.900000E-01   1.00800           0
      1532 MEMB     12       POPC     C215     CTL2    -0.180000       12.0110           0
      1533 MEMB     12       POPC     H15R     HAL2     0.900000E-01   1.00800           0
      1534 MEMB     12       POPC     H15S     HAL2     0.900000E-01   1.00800           0
      1535 MEMB     12       POPC     C216     CTL2    -0.180000       12.0110           0
      1536 MEMB     12       POPC     H16R     HAL2     0.900000E-01   1.00800           0
      1537 MEMB     12       POPC     H16S     HAL2     0.900000E-01   1.00800           0
      1538 MEMB     12       POPC     C217     CTL2    -0.180000       12.0110           0
      1539 MEMB     12       POPC     H17R     HAL2     0.900000E-01   1.00800           0
      1540 MEMB     12       POPC     H17S     HAL2     0.900000E-01   1.00800           0
      1541 MEMB     12       POPC     C218     CTL3    -0.270000       12.0110           0
      1542 MEMB     12       POPC     H18R     HAL3     0.900000E-01   1.00800           0
      1543 MEMB     12       POPC     H18S     HAL3     0.900000E-01   1.00800           0
      1544 MEMB     12       POPC     H18T     HAL3     0.900000E-01   1.00800           0
      1545 MEMB     12       POPC     C33      CTL2    -0.180000       12.0110           0
      1546 MEMB     12       POPC     H3X      HAL2     0.900000E-01   1.00800           0
      1547 MEMB     12       POPC     H3Y      HAL2     0.900000E-01   1.00800           0
      1548 MEMB     12       POPC     C34      CTL2    -0.180000       12.0110           0
      1549 MEMB     12       POPC     H4X      HAL2     0.900000E-01   1.00800           0
      1550 MEMB     12       POPC     H4Y      HAL2     0.900000E-01   1.00800           0
      1551 MEMB     12       POPC     C35      CTL2    -0.180000       12.0110           0
      1552 MEMB     12       POPC     H5X      HAL2     0.900000E-01   1.00800           0
      1553 MEMB     12       POPC     H5Y      HAL2     0.900000E-01   1.00800           0
      1554 MEMB     12       POPC     C36      CTL2    -0.180000       12.0110           0
      1555 MEMB     12       POPC     H6X      HAL2     0.900000E-01   1.00800           0
      1556 MEMB     12       POPC     H6Y      HAL2     0.900000E-01   1.00800           0
      1557 MEMB     12       POPC     C37      CTL2    -0.180000       12.0110           0
      1558 MEMB     12       POPC     H7X      HAL2     0.900000E-01   1.00800           0
      1559 MEMB     12       POPC     H7Y      HAL2     0.900000E-01   1.00800           0
      1560 MEMB     12       POPC     C38      CTL2    -0.180000       12.0110           0
      1561 MEMB     12       POPC     H8X      HAL2     0.900000E-01   1.00800           0
      1562 MEMB     12       POPC     H8Y      HAL2     0.900000E-01   1.00800           0
      1563 MEMB     12       POPC     C39      CTL2    -0.180000       12.0110           0
      1564 MEMB     12       POPC     H9X      HAL2     0.900000E-01   1.00800           0
      1565 MEMB     12       POPC     H9Y      HAL2     0.900000E-01   1.00800           0
      1566 MEMB     12       POPC     C310     CTL2    -0.180000       12.0110           0
      1567 MEMB     12       POPC     H10X     HAL2     0.900000E-01   1.00800           0
      1568 MEMB     12       POPC     H10Y     HAL2     0.900000E-01   1.00800           0
      1569 MEMB     12       POPC     C311     CTL2    -0.180000       12.0110           0
      1570 MEMB     12       POPC     H11X     HAL2     0.900000E-01   1.00800           0
      1571 MEMB     12       POPC     H11Y     HAL2     0.900000E-01   1.00800           0
      1572 MEMB     12       POPC     C312     CTL2    -0.180000       12.0110           0
      1573 MEMB     12       POPC     H12X     HAL2     0.900000E-01   1.00800           0
      1574 MEMB     12       POPC     H12Y     HAL2     0.900000E-01   1.00800           0
      1575 MEMB     12       POPC     C313     CTL2    -0.180000       12.0110           0
      1576 MEMB     12       POPC     H13X     HAL2     0.900000E-01   1.00800           0
      1577 MEMB     12       POPC     H13Y     HAL2     0.900000E-01   1.00800           0
      1578 MEMB     12       POPC     C314     CTL2    -0.180000       12.0110           0
      1579 MEMB     12       POPC     H14X     HAL2     0.900000E-01   1.00800           0
      1580 MEMB     12       POPC     H14Y     HAL2     0.900000E-01   1.00800           0
      1581 MEMB     12       POPC     C315     CTL2    -0.180000       12.0110           0
      1582 MEMB     12       POPC     H15X     HAL2     0.900000E-01   1.00800           0
      1583 MEMB     12       POPC     H15Y     HAL2     0.900000E-01   1.00800           0
      1584 MEMB     12       POPC     C316     CTL3    -0.270000       12.0110           0
      1585 MEMB     12       POPC     H16X     HAL3     0.900000E-01   1.00800           0
      1586 MEMB     12       POPC     H16Y     HAL3     0.900000E-01   1.00800           0
      1587 MEMB     12       POPC     H16Z     HAL3     0.900000E-01   1.00800           0
      1588 MEMB     13       POPS     N        NH3L    -0.300000       14.0070           0
      1589 MEMB     13       POPS     HN1      HCL      0.330000       1.00800           0
      1590 MEMB     13       POPS     HN2      HCL      0.330000       1.00800           0
      1591 MEMB     13       POPS     HN3      HCL      0.330000       1.00800           0
      1592 MEMB     13       POPS     C12      CTL1     0.210000       12.0110           0
      1593 MEMB     13       POPS     H12A     HBL      0.100000       1.00800           0
      1594 MEMB     13       POPS     C13      CCL      0.340000       12.0110           0
      1595 MEMB     13       POPS     O13A     OCL     -0.670000       15.9994           0
      1596 MEMB     13       POPS     O13B     OCL     -0.670000       15.9994           0
      1597 MEMB     13       POPS     C11      CTL2    -0.800000E-01   12.0110           0
      1598 MEMB     13       POPS     H11A     HAL2     0.900000E-01   1.00800           0
      1599 MEMB     13       POPS     H11B     HAL2     0.900000E-01   1.00800           0
      1600 MEMB     13       POPS     P        PL        1.50000       30.9740           0
      1601 MEMB     13       POPS     O13      O2L     -0.780000       15.9994           0
      1602 MEMB     13       POPS     O14      O2L     -0.780000       15.9994           0
      1603 MEMB     13       POPS     O12      OSLP    -0.570000       15.9994           0
      1604 MEMB     13       POPS     O11      OSLP    -0.570000       15.9994           0
      1605 MEMB     13       POPS     C1       CTL2    -0.800000E-01   12.0110           0
      1606 MEMB     13       POPS     HA       HAL2     0.900000E-01   1.00800           0
      1607 MEMB     13       POPS     HB       HAL2     0.900000E-01   1.00800           0
      1608 MEMB     13       POPS     C2       CTL1     0.170000       12.0110           0
      1609 MEMB     13       POPS     HS       HAL1     0.900000E-01   1.00800           0
      1610 MEMB     13       POPS     O21      OSL     -0.490000       15.9994           0
      1611 MEMB     13       POPS     C21      CL       0.900000       12.0110           0
      1612 MEMB     13       POPS     O22      OBL     -0.630000       15.9994           0
      1613 MEMB     13       POPS     C22      CTL2    -0.220000       12.0110           0
      1614 MEMB     13       POPS     H2R      HAL2     0.900000E-01   1.00800           0
      1615 MEMB     13       POPS     H2S      HAL2     0.900000E-01   1.00800           0
      1616 MEMB     13       POPS     C3       CTL2     0.800000E-01   12.0110           0
      1617 MEMB     13       POPS     HX       HAL2     0.900000E-01   1.00800           0
      1618 MEMB     13       POPS     HY       HAL2     0.900000E-01   1.00800           0
      1619 MEMB     13       POPS     O31      OSL     -0.490000       15.9994           0
      1620 MEMB     13       POPS     C31      CL       0.900000       12.0110           0
      1621 MEMB     13       POPS     O32      OBL     -0.630000       15.9994           0
      1622 MEMB     13       POPS     C32      CTL2    -0.220000       12.0110           0
      1623 MEMB     13       POPS     H2X      HAL2     0.900000E-01   1.00800           0
      1624 MEMB     13       POPS     H2Y      HAL2     0.900000E-01   1.00800           0
      1625 MEMB     13       POPS     C23      CTL2    -0.180000       12.0110           0
      1626 MEMB     13       POPS     H3R      HAL2     0.900000E-01   1.00800           0
      1627 MEMB     13       POPS     H3S      HAL2     0.900000E-01   1.00800           0
      1628 MEMB     13       POPS     C24      CTL2    -0.180000       12.0110           0
      1629 MEMB     13       POPS     H4R      HAL2     0.900000E-01   1.00800           0
      1630 MEMB     13       POPS     H4S      HAL2     0.900000E-01   1.00800           0
      1631 MEMB     13       POPS     C25      CTL2    -0.180000       12.0110           0
      1632 MEMB     13       POPS     H5R      HAL2     0.900000E-01   1.00800           0
      1633 MEMB     13       POPS     H5S      HAL2     0.900000E-01   1.00800           0
      1634 MEMB     13       POPS     C26      CTL2    -0.180000       12.0110           0
      1635 MEMB     13       POPS     H6R      HAL2     0.900000E-01   1.00800           0
      1636 MEMB     13       POPS     H6S      HAL2     0.900000E-01   1.00800           0
      1637 MEMB     13       POPS     C27      CTL2    -0.180000       12.0110           0
      1638 MEMB     13       POPS     H7R      HAL2     0.900000E-01   1.00800           0
      1639 MEMB     13       POPS     H7S      HAL2     0.900000E-01   1.00800           0
      1640 MEMB     13       POPS     C28      CTL2    -0.180000       12.0110           0
      1641 MEMB     13       POPS     H8R      HAL2     0.900000E-01   1.00800           0
      1642 MEMB     13       POPS     H8S      HAL2     0.900000E-01   1.00800           0
      1643 MEMB     13       POPS     C29      CEL1    -0.150000       12.0110           0
      1644 MEMB     13       POPS     H91      HEL1     0.150000       1.00800           0
      1645 MEMB     13       POPS     C210     CEL1    -0.150000       12.0110           0
      1646 MEMB     13       POPS     H101     HEL1     0.150000       1.00800           0
      1647 MEMB     13       POPS     C211     CTL2    -0.180000       12.0110           0
      1648 MEMB     13       POPS     H11R     HAL2     0.900000E-01   1.00800           0
      1649 MEMB     13       POPS     H11S     HAL2     0.900000E-01   1.00800           0
      1650 MEMB     13       POPS     C212     CTL2    -0.180000       12.0110           0
      1651 MEMB     13       POPS     H12R     HAL2     0.900000E-01   1.00800           0
      1652 MEMB     13       POPS     H12S     HAL2     0.900000E-01   1.00800           0
      1653 MEMB     13       POPS     C213     CTL2    -0.180000       12.0110           0
      1654 MEMB     13       POPS     H13R     HAL2     0.900000E-01   1.00800           0
      1655 MEMB     13       POPS     H13S     HAL2     0.900000E-01   1.00800           0
      1656 MEMB     13       POPS     C214     CTL2    -0.180000       12.0110           0
      1657 MEMB     13       POPS     H14R     HAL2     0.900000E-01   1.00800           0
      1658 MEMB     13       POPS     H14S     HAL2     0.900000E-01   1.00800           0
      1659 MEMB     13       POPS     C215     CTL2    -0.180000       12.0110           0
      1660 MEMB     13       POPS     H15R     HAL2     0.900000E-01   1.00800           0
      1661 MEMB     13       POPS     H15S     HAL2     0.900000E-01   1.00800           0
      1662 MEMB     13       POPS     C216     CTL2    -0.180000       12.0110           0
      1663 MEMB     13       POPS     H16R     HAL2     0.900000E-01   1.00800           0
      1664 MEMB     13       POPS     H16S     HAL2     0.900000E-01   1.00800           0
      1665 MEMB     13       POPS     C217     CTL2    -0.180000       12.0110           0
      1666 MEMB     13       POPS     H17R     HAL2     0.900000E-01   1.00800           0
      1667 MEMB     13       POPS     H17S     HAL2     0.900000E-01   1.00800           0
      1668 MEMB     13       POPS     C218     CTL3    -0.270000       12.0110           0
      1669 MEMB     13       POPS     H18R     HAL3     0.900000E-01   1.00800           0
      1670 MEMB     13       POPS     H18S     HAL3     0.900000E-01   1.00800           0
      1671 MEMB     13       POPS     H18T     HAL3     0.900000E-01   1.00800           0
      1672 MEMB     13       POPS     C33      CTL2    -0.180000       12.0110           0
      1673 MEMB     13       POPS     H3X      HAL2     0.900000E-01   1.00800           0
      1674 MEMB     13       POPS     H3Y      HAL2     0.900000E-01   1.00800           0
      1675 MEMB     13       POPS     C34      CTL2    -0.180000       12.0110           0
      1676 MEMB     13       POPS     H4X      HAL2     0.900000E-01   1.00800           0
      1677 MEMB     13       POPS     H4Y      HAL2     0.900000E-01   1.00800           0
      1678 MEMB     13       POPS     C35      CTL2    -0.180000       12.0110           0
      1679 MEMB     13       POPS     H5X      HAL2     0.900000E-01   1.00800           0
      1680 MEMB     13       POPS     H5Y      HAL2     0.900000E-01   1.00800           0
      1681 MEMB     13       POPS     C36      CTL2    -0.180000       12.0110           0
      1682 MEMB     13       POPS     H6X      HAL2     0.900000E-01   1.00800           0
      1683 MEMB     13       POPS     H6Y      HAL2     0.900000E-01   1.00800           0
      1684 MEMB     13       POPS     C37      CTL2    -0.180000       12.0110           0
      1685 MEMB     13       POPS     H7X      HAL2     0.900000E-01   1.00800           0
      1686 MEMB     13       POPS     H7Y      HAL2     0.900000E-01   1.00800           0
      1687 MEMB     13       POPS     C38      CTL2    -0.180000       12.0110           0
      1688 MEMB     13       POPS     H8X      HAL2     0.900000E-01   1.00800           0
      1689 MEMB     13       POPS     H8Y      HAL2     0.900000E-01   1.00800           0
      1690 MEMB     13       POPS     C39      CTL2    -0.180000       12.0110           0
      1691 MEMB     13       POPS     H9X      HAL2     0.900000E-01   1.00800           0
      1692 MEMB     13       POPS     H9Y      HAL2     0.900000E-01   1.00800           0
      1693 MEMB     13       POPS     C310     CTL2    -0.180000       12.0110           0
      1694 MEMB     13       POPS     H10X     HAL2     0.900000E-01   1.00800           0
      1695 MEMB     13       POPS     H10Y     HAL2     0.900000E-01   1.00800           0
      1696 MEMB     13       POPS     C311     CTL2    -0.180000       12.0110           0
      1697 MEMB     13       POPS     H11X     HAL2     0.900000E-01   1.00800           0
      1698 MEMB     13       POPS     H11Y     HAL2     0.900000E-01   1.00800           0
      1699 MEMB     13       POPS     C312     CTL2    -0.180000       12.0110           0
      1700 MEMB     13       POPS     H12X     HAL2     0.900000E-01   1.00800           0
      1701 MEMB     13       POPS     H12Y     HAL2     0.900000E-01   1.00800           0
      1702 MEMB     13       POPS     C313     CTL2    -0.180000       12.0110           0
      1703 MEMB     13       POPS     H13X     HAL2     0.900000E-01   1.00800           0
      1704 MEMB     13       POPS     H13Y     HAL2     0.900000E-01   1.00800           0
      1705 MEMB     13       POPS     C314     CTL2    -0.180000       12.0110           0
      1706 MEMB     13       POPS     H14X     HAL2     0.900000E-01   1.00800           0
      1707 MEMB     13       POPS     H14Y     HAL2     0.900000E-01   1.00800           0
      1708 MEMB     13       POPS     C315     CTL2    -0.180000       12.0110           0
      1709 MEMB     13       POPS     H15X     HAL2     0.900000E-01   1.00800           0
      1710 MEMB     13       POPS     H15Y     HAL2     0.900000E-01   1.00800           0
      1711 MEMB     13       POPS     C316     CTL3    -0.270000       12.0110           0
      1712 MEMB     13       POPS     H16X     HAL3     0.900000E-01   1.00800           0
      1713 MEMB     13       POPS     H16Y     HAL3     0.900000E-01   1.00800           0
      1714 MEMB     13       POPS     H16Z     HAL3     0.900000E-01   1.00800           0
      1715 MEMB     14       POPC     N        NTL     -0.600000       14.0070           0
      1716 MEMB     14       POPC     C12      CTL2    -0.100000       12.0110           0
      1717 MEMB     14       POPC     H12A     HL       0.250000       1.00800           0
      1718 MEMB     14       POPC     H12B     HL       0.250000       1.00800           0
      1719 MEMB     14       POPC     C13      CTL5    -0.350000       12.0110           0
      1720 MEMB     14       POPC     H13A     HL       0.250000       1.00800           0
      1721 MEMB     14       POPC     H13B     HL       0.250000       1.00800           0
      1722 MEMB     14       POPC     H13C     HL       0.250000       1.00800           0
      1723 MEMB     14       POPC     C14      CTL5    -0.350000       12.0110           0
      1724 MEMB     14       POPC     H14A     HL       0.250000       1.00800           0
      1725 MEMB     14       POPC     H14B     HL       0.250000       1.00800           0
      1726 MEMB     14       POPC     H14C     HL       0.250000       1.00800           0
      1727 MEMB     14       POPC     C15      CTL5    -0.350000       12.0110           0
      1728 MEMB     14       POPC     H15A     HL       0.250000       1.00800           0
      1729 MEMB     14       POPC     H15B     HL       0.250000       1.00800           0
      1730 MEMB     14       POPC     H15C     HL       0.250000       1.00800           0
      1731 MEMB     14       POPC     C11      CTL2    -0.800000E-01   12.0110           0
      1732 MEMB     14       POPC     H11A     HAL2     0.900000E-01   1.00800           0
      1733 MEMB     14       POPC     H11B     HAL2     0.900000E-01   1.00800           0
      1734 MEMB     14       POPC     P        PL        1.50000       30.9740           0
      1735 MEMB     14       POPC     O13      O2L     -0.780000       15.9994           0
      1736 MEMB     14       POPC     O14      O2L     -0.780000       15.9994           0
      1737 MEMB     14       POPC     O12      OSLP    -0.570000       15.9994           0
      1738 MEMB     14       POPC     O11      OSLP    -0.570000       15.9994           0
      1739 MEMB     14       POPC     C1       CTL2    -0.800000E-01   12.0110           0
      1740 MEMB     14       POPC     HA       HAL2     0.900000E-01   1.00800           0
      1741 MEMB     14       POPC     HB       HAL2     0.900000E-01   1.00800           0
      1742 MEMB     14       POPC     C2       CTL1     0.170000       12.0110           0
      1743 MEMB     14       POPC     HS       HAL1     0.900000E-01   1.00800           0
      1744 MEMB     14       POPC     O21      OSL     -0.490000       15.9994           0
      1745 MEMB     14       POPC     C21      CL       0.900000       12.0110           0
      1746 MEMB     14       POPC     O22      OBL     -0.630000       15.9994           0
      1747 MEMB     14       POPC     C22      CTL2    -0.220000       12.0110           0
      1748 MEMB     14       POPC     H2R      HAL2     0.900000E-01   1.00800           0
      1749 MEMB     14       POPC     H2S      HAL2     0.900000E-01   1.00800           0
      1750 MEMB     14       POPC     C3       CTL2     0.800000E-01   12.0110           0
      1751 MEMB     14       POPC     HX       HAL2     0.900000E-01   1.00800           0
      1752 MEMB     14       POPC     HY       HAL2     0.900000E-01   1.00800           0
      1753 MEMB     14       POPC     O31      OSL     -0.490000       15.9994           0
      1754 MEMB     14       POPC     C31      CL       0.900000       12.0110           0
      1755 MEMB     14       POPC     O32      OBL     -0.630000       15.9994           0
      1756 MEMB     14       POPC     C32      CTL2    -0.220000       12.0110           0
      1757 MEMB     14       POPC     H2X      HAL2     0.900000E-01   1.00800           0
      1758 MEMB     14       POPC     H2Y      HAL2     0.900000E-01   1.00800           0
      1759 MEMB     14       POPC     C23      CTL2    -0.180000       12.0110           0
      1760 MEMB     14       POPC     H3R      HAL2     0.900000E-01   1.00800           0
      1761 MEMB     14       POPC     H3S      HAL2     0.900000E-01   1.00800           0
      1762 MEMB     14       POPC     C24      CTL2    -0.180000       12.0110           0
      1763 MEMB     14       POPC     H4R      HAL2     0.900000E-01   1.00800           0
      1764 MEMB     14       POPC     H4S      HAL2     0.900000E-01   1.00800           0
      1765 MEMB     14       POPC     C25      CTL2    -0.180000       12.0110           0
      1766 MEMB     14       POPC     H5R      HAL2     0.900000E-01   1.00800           0
      1767 MEMB     14       POPC     H5S      HAL2     0.900000E-01   1.00800           0
      1768 MEMB     14       POPC     C26      CTL2    -0.180000       12.0110           0
      1769 MEMB     14       POPC     H6R      HAL2     0.900000E-01   1.00800           0
      1770 MEMB     14       POPC     H6S      HAL2     0.900000E-01   1.00800           0
      1771 MEMB     14       POPC     C27      CTL2    -0.180000       12.0110           0
      1772 MEMB     14       POPC     H7R      HAL2     0.900000E-01   1.00800           0
      1773 MEMB     14       POPC     H7S      HAL2     0.900000E-01   1.00800           0
      1774 MEMB     14       POPC     C28      CTL2    -0.180000       12.0110           0
      1775 MEMB     14       POPC     H8R      HAL2     0.900000E-01   1.00800           0
      1776 MEMB     14       POPC     H8S      HAL2     0.900000E-01   1.00800           0
      1777 MEMB     14       POPC     C29      CEL1    -0.150000       12.0110           0
      1778 MEMB     14       POPC     H91      HEL1     0.150000       1.00800           0
      1779 MEMB     14       POPC     C210     CEL1    -0.150000       12.0110           0
      1780 MEMB     14       POPC     H101     HEL1     0.150000       1.00800           0
      1781 MEMB     14       POPC     C211     CTL2    -0.180000       12.0110           0
      1782 MEMB     14       POPC     H11R     HAL2     0.900000E-01   1.00800           0
      1783 MEMB     14       POPC     H11S     HAL2     0.900000E-01   1.00800           0
      1784 MEMB     14       POPC     C212     CTL2    -0.180000       12.0110           0
      1785 MEMB     14       POPC     H12R     HAL2     0.900000E-01   1.00800           0
      1786 MEMB     14       POPC     H12S     HAL2     0.900000E-01   1.00800           0
      1787 MEMB     14       POPC     C213     CTL2    -0.180000       12.0110           0
      1788 MEMB     14       POPC     H13R     HAL2     0.900000E-01   1.00800           0
      1789 MEMB     14       POPC     H13S     HAL2     0.900000E-01   1.00800           0
      1790 MEMB     14       POPC     C214     CTL2    -0.180000       12.0110           0
      1791 MEMB     14       POPC     H14R     HAL2     0.900000E-01   1.00800           0
      1792 MEMB     14       POPC     H14S     HAL2     0.900000E-01   1.00800           0
      1793 MEMB     14       POPC     C215     CTL2    -0.180000       12.0110           0
      1794 MEMB     14       POPC     H15R     HAL2     0.900000E-01   1.00800           0
      1795 MEMB     14       POPC     H15S     HAL2     0.900000E-01   1.00800           0
      1796 MEMB     14       POPC     C216     CTL2    -0.180000       12.0110           0
      1797 MEMB     14       POPC     H16R     HAL2     0.900000E-01   1.00800           0
      1798 MEMB     14       POPC     H16S     HAL2     0.900000E-01   1.00800           0
      1799 MEMB     14       POPC     C217     CTL2    -0.180000       12.0110           0
      1800 MEMB     14       POPC     H17R     HAL2     0.900000E-01   1.00800           0
      1801 MEMB     14       POPC     H17S     HAL2     0.900000E-01   1.00800           0
      1802 MEMB     14       POPC     C218     CTL3    -0.270000       12.0110           0
      1803 MEMB     14       POPC     H18R     HAL3     0.900000E-01   1.00800           0
      1804 MEMB     14       POPC     H18S     HAL3     0.900000E-01   1.00800           0
      1805 MEMB     14       POPC     H18T     HAL3     0.900000E-01   1.00800           0
      1806 MEMB     14       POPC     C33      CTL2    -0.180000       12.0110           0
      1807 MEMB     14       POPC     H3X      HAL2     0.900000E-01   1.00800           0
      1808 MEMB     14       POPC     H3Y      HAL2     0.900000E-01   1.00800           0
      1809 MEMB     14       POPC     C34      CTL2    -0.180000       12.0110           0
      1810 MEMB     14       POPC     H4X      HAL2     0.900000E-01   1.00800           0
      1811 MEMB     14       POPC     H4Y      HAL2     0.900000E-01   1.00800           0
      1812 MEMB     14       POPC     C35      CTL2    -0.180000       12.0110           0
      1813 MEMB     14       POPC     H5X      HAL2     0.900000E-01   1.00800           0
      1814 MEMB     14       POPC     H5Y      HAL2     0.900000E-01   1.00800           0
      1815 MEMB     14       POPC     C36      CTL2    -0.180000       12.0110           0
      1816 MEMB     14       POPC     H6X      HAL2     0.900000E-01   1.00800           0
      1817 MEMB     14       POPC     H6Y      HAL2     0.900000E-01   1.00800           0
      1818 MEMB     14       POPC     C37      CTL2    -0.180000       12.0110           0
      1819 MEMB     14       POPC     H7X      HAL2     0.900000E-01   1.00800           0
      1820 MEMB     14       POPC     H7Y      HAL2     0.900000E-01   1.00800           0
      1821 MEMB     14       POPC     C38      CTL2    -0.180000       12.0110           0
      1822 MEMB     14       POPC     H8X      HAL2     0.900000E-01   1.00800           0
      1823 MEMB     14       POPC     H8Y      HAL2     0.900000E-01   1.00800           0
      1824 MEMB     14       POPC     C39      CTL2    -0.180000       12.0110           0
      1825 MEMB     14       POPC     H9X      HAL2     0.900000E-01   1.00800           0
      1826 MEMB     14       POPC     H9Y      HAL2     0.900000E-01   1.00800           0
      1827 MEMB     14       POPC     C310     CTL2    -0.180000       12.0110           0
      1828 MEMB     14       POPC     H10X     HAL2     0.900000E-01   1.00800           0
      1829 MEMB     14       POPC     H10Y     HAL2     0.900000E-01   1.00800           0
      1830 MEMB     14       POPC     C311     CTL2    -0.180000       12.0110           0
      1831 MEMB     14       POPC     H11X     HAL2     0.900000E-01   1.00800           0
      1832 MEMB     14       POPC     H11Y     HAL2     0.900000E-01   1.00800           0
      1833 MEMB     14       POPC     C312     CTL2    -0.180000       12.0110           0
      1834 MEMB     14       POPC     H12X     HAL2     0.900000E-01   1.00800           0
      1835 MEMB     14       POPC     H12Y     HAL2     0.900000E-01   1.00800           0
      1836 MEMB     14       POPC     C313     CTL2    -0.180000       12.0110           0
      1837 MEMB     14       POPC     H13X     HAL2     0.900000E-01   1.00800           0
      1838 MEMB     14       POPC     H13Y     HAL2     0.900000E-01   1.00800           0
      1839 MEMB     14       POPC     C314     CTL2    -0.180000       12.0110           0
      1840 MEMB     14       POPC     H14X     HAL2     0.900000E-01   1.00800           0
      1841 MEMB     14       POPC     H14Y     HAL2     0.900000E-01   1.00800           0
      1842 MEMB     14       POPC     C315     CTL2    -0.180000       12.0110           0
      1843 MEMB     14       POPC     H15X     HAL2     0.900000E-01   1.00800           0
      1844 MEMB     14       POPC     H15Y     HAL2     0.900000E-01   1.00800           0
      1845 MEMB     14       POPC     C316     CTL3    -0.270000       12.0110           0
      1846 MEMB     14       POPC     H16X     HAL3     0.900000E-01   1.00800           0
      1847 MEMB     14       POPC     H16Y     HAL3     0.900000E-01   1.00800           0
      1848 MEMB     14       POPC     H16Z     HAL3     0.900000E-01   1.00800           0
      1849 MEMB     15       POPC     N        NTL     -0.600000       14.0070           0
      1850 MEMB     15       POPC     C12      CTL2    -0.100000       12.0110           0
      1851 MEMB     15       POPC     H12A     HL       0.250000       1.00800           0
      1852 MEMB     15       POPC     H12B     HL       0.250000       1.00800           0
      1853 MEMB     15       POPC     C13      CTL5    -0.350000       12.0110           0
      1854 MEMB     15       POPC     H13A     HL       0.250000       1.00800           0
      1855 MEMB     15       POPC     H13B     HL       0.250000       1.00800           0
      1856 MEMB     15       POPC     H13C     HL       0.250000       1.00800           0
      1857 MEMB     15       POPC     C14      CTL5    -0.350000       12.0110           0
      1858 MEMB     15       POPC     H14A     HL       0.250000       1.00800           0
      1859 MEMB     15       POPC     H14B     HL       0.250000       1.00800           0
      1860 MEMB     15       POPC     H14C     HL       0.250000       1.00800           0
      1861 MEMB     15       POPC     C15      CTL5    -0.350000       12.0110           0
      1862 MEMB     15       POPC     H15A     HL       0.250000       1.00800           0
      1863 MEMB     15       POPC     H15B     HL       0.250000       1.00800           0
      1864 MEMB     15       POPC     H15C     HL       0.250000       1.00800           0
      1865 MEMB     15       POPC     C11      CTL2    -0.800000E-01   12.0110           0
      1866 MEMB     15       POPC     H11A     HAL2     0.900000E-01   1.00800           0
      1867 MEMB     15       POPC     H11B     HAL2     0.900000E-01   1.00800           0
      1868 MEMB     15       POPC     P        PL        1.50000       30.9740           0
      1869 MEMB     15       POPC     O13      O2L     -0.780000       15.9994           0
      1870 MEMB     15       POPC     O14      O2L     -0.780000       15.9994           0
      1871 MEMB     15       POPC     O12      OSLP    -0.570000       15.9994           0
      1872 MEMB     15       POPC     O11      OSLP    -0.570000       15.9994           0
      1873 MEMB     15       POPC     C1       CTL2    -0.800000E-01   12.0110           0
      1874 MEMB     15       POPC     HA       HAL2     0.900000E-01   1.00800           0
      1875 MEMB     15       POPC     HB       HAL2     0.900000E-01   1.00800           0
      1876 MEMB     15       POPC     C2       CTL1     0.170000       12.0110           0
      1877 MEMB     15       POPC     HS       HAL1     0.900000E-01   1.00800           0
      1878 MEMB     15       POPC     O21      OSL     -0.490000       15.9994           0
      1879 MEMB     15       POPC     C21      CL       0.900000       12.0110           0
      1880 MEMB     15       POPC     O22      OBL     -0.630000       15.9994           0
      1881 MEMB     15       POPC     C22      CTL2    -0.220000       12.0110           0
      1882 MEMB     15       POPC     H2R      HAL2     0.900000E-01   1.00800           0
      1883 MEMB     15       POPC     H2S      HAL2     0.900000E-01   1.00800           0
      1884 MEMB     15       POPC     C3       CTL2     0.800000E-01   12.0110           0
      1885 MEMB     15       POPC     HX       HAL2     0.900000E-01   1.00800           0
      1886 MEMB     15       POPC     HY       HAL2     0.900000E-01   1.00800           0
      1887 MEMB     15       POPC     O31      OSL     -0.490000       15.9994           0
      1888 MEMB     15       POPC     C31      CL       0.900000       12.0110           0
      1889 MEMB     15       POPC     O32      OBL     -0.630000       15.9994           0
      1890 MEMB     15       POPC     C32      CTL2    -0.220000       12.0110           0
      1891 MEMB     15       POPC     H2X      HAL2     0.900000E-01   1.00800           0
      1892 MEMB     15       POPC     H2Y      HAL2     0.900000E-01   1.00800           0
      1893 MEMB     15       POPC     C23      CTL2    -0.180000       12.0110           0
      1894 MEMB     15       POPC     H3R      HAL2     0.900000E-01   1.00800           0
      1895 MEMB     15       POPC     H3S      HAL2     0.900000E-01   1.00800           0
      1896 MEMB     15       POPC     C24      CTL2    -0.180000       12.0110           0
      1897 MEMB     15       POPC     H4R      HAL2     0.900000E-01   1.00800           0
      1898 MEMB     15       POPC     H4S      HAL2     0.900000E-01   1.00800           0
      1899 MEMB     15       POPC     C25      CTL2    -0.180000       12.0110           0
      1900 MEMB     15       POPC     H5R      HAL2     0.900000E-01   1.00800           0
      1901 MEMB     15       POPC     H5S      HAL2     0.900000E-01   1.00800           0
      1902 MEMB     15       POPC     C26      CTL2    -0.180000       12.0110           0
      1903 MEMB     15       POPC     H6R      HAL2     0.900000E-01   1.00800           0
      1904 MEMB     15       POPC     H6S      HAL2     0.900000E-01   1.00800           0
      1905 MEMB     15       POPC     C27      CTL2    -0.180000       12.0110           0
      1906 MEMB     15       POPC     H7R      HAL2     0.900000E-01   1.00800           0
      1907 MEMB     15       POPC     H7S      HAL2     0.900000E-01   1.00800           0
      1908 MEMB     15       POPC     C28      CTL2    -0.180000       12.0110           0
      1909 MEMB     15       POPC     H8R      HAL2     0.900000E-01   1.00800           0
      1910 MEMB     15       POPC     H8S      HAL2     0.900000E-01   1.00800           0
      1911 MEMB     15       POPC     C29      CEL1    -0.150000       12.0110           0
      1912 MEMB     15       POPC     H91      HEL1     0.150000       1.00800           0
      1913 MEMB     15       POPC     C210     CEL1    -0.150000       12.0110           0
      1914 MEMB     15       POPC     H101     HEL1     0.150000       1.00800           0
      1915 MEMB     15       POPC     C211     CTL2    -0.180000       12.0110           0
      1916 MEMB     15       POPC     H11R     HAL2     0.900000E-01   1.00800           0
      1917 MEMB     15       POPC     H11S     HAL2     0.900000E-01   1.00800           0
      1918 MEMB     15       POPC     C212     CTL2    -0.180000       12.0110           0
      1919 MEMB     15       POPC     H12R     HAL2     0.900000E-01   1.00800           0
      1920 MEMB     15       POPC     H12S     HAL2     0.900000E-01   1.00800           0
      1921 MEMB     15       POPC     C213     CTL2    -0.180000       12.0110           0
      1922 MEMB     15       POPC     H13R     HAL2     0.900000E-01   1.00800           0
      1923 MEMB     15       POPC     H13S     HAL2     0.900000E-01   1.00800           0
      1924 MEMB     15       POPC     C214     CTL2    -0.180000       12.0110           0
      1925 MEMB     15       POPC     H14R     HAL2     0.900000E-01   1.00800           0
      1926 MEMB     15       POPC     H14S     HAL2     0.900000E-01   1.00800           0
      1927 MEMB     15       POPC     C215     CTL2    -0.180000       12.0110           0
      1928 MEMB     15       POPC     H15R     HAL2     0.900000E-01   1.00800           0
      1929 MEMB     15       POPC     H15S     HAL2     0.900000E-01   1.00800           0
      1930 MEMB     15       POPC     C216     CTL2    -0.180000       12.0110           0
      1931 MEMB     15       POPC     H16R     HAL2     0.900000E-01   1.00800           0
      1932 MEMB     15       POPC     H16S     HAL2     0.900000E-01   1.00800           0
      1933 MEMB     15       POPC     C217     CTL2    -0.180000       12.0110           0
      1934 MEMB     15       POPC     H17R     HAL2     0.900000E-01   1.00800           0
      1935 MEMB     15       POPC     H17S     HAL2     0.900000E-01   1.00800           0
      1936 MEMB     15       POPC     C218     CTL3    -0.270000       12.0110           0
      1937 MEMB     15       POPC     H18R     HAL3     0.900000E-01   1.00800           0
      1938 MEMB     15       POPC     H18S     HAL3     0.900000E-01   1.00800           0
      1939 MEMB     15       POPC     H18T     HAL3     0.900000E-01   1.00800           0
      1940 MEMB     15       POPC     C33      CTL2    -0.180000       12.0110           0
      1941 MEMB     15       POPC     H3X      HAL2     0.900000E-01   1.00800           0
      1942 MEMB     15       POPC     H3Y      HAL2     0.900000E-01   1.00800           0
      1943 MEMB     15       POPC     C34      CTL2    -0.180000       12.0110           0
      1944 MEMB     15       POPC     H4X      HAL2     0.900000E-01   1.00800           0
      1945 MEMB     15       POPC     H4Y      HAL2     0.900000E-01   1.00800           0
      1946 MEMB     15       POPC     C35      CTL2    -0.180000       12.0110           0
      1947 MEMB     15       POPC     H5X      HAL2     0.900000E-01   1.00800           0
      1948 MEMB     15       POPC     H5Y      HAL2     0.900000E-01   1.00800           0
      1949 MEMB     15       POPC     C36      CTL2    -0.180000       12.0110           0
      1950 MEMB     15       POPC     H6X      HAL2     0.900000E-01   1.00800           0
      1951 MEMB     15       POPC     H6Y      HAL2     0.900000E-01   1.00800           0
      1952 MEMB     15       POPC     C37      CTL2    -0.180000       12.0110           0
      1953 MEMB     15       POPC     H7X      HAL2     0.900000E-01   1.00800           0
      1954 MEMB     15       POPC     H7Y      HAL2     0.900000E-01   1.00800           0
      1955 MEMB     15       POPC     C38      CTL2    -0.180000       12.0110           0
      1956 MEMB     15       POPC     H8X      HAL2     0.900000E-01   1.00800           0
      1957 MEMB     15       POPC     H8Y      HAL2     0.900000E-01   1.00800           0
      1958 MEMB     15       POPC     C39      CTL2    -0.180000       12.0110           0
      1959 MEMB     15       POPC     H9X      HAL2     0.900000E-01   1.00800           0
      1960 MEMB     15       POPC     H9Y      HAL2     0.900000E-01   1.00800           0
      1961 MEMB     15       POPC     C310     CTL2    -0.180000       12.0110           0
      1962 MEMB     15       POPC     H10X     HAL2     0.900000E-01   1.00800           0
      1963 MEMB     15       POPC     H10Y     HAL2     0.900000E-01   1.00800           0
      1964 MEMB     15       POPC     C311     CTL2    -0.180000       12.0110           0
      1965 MEMB     15       POPC     H11X     HAL2     0.900000E-01   1.00800           0
      1966 MEMB     15       POPC     H11Y     HAL2     0.900000E-01   1.00800           0
      1967 MEMB     15       POPC     C312     CTL2    -0.180000       12.0110           0
      1968 MEMB     15       POPC     H12X     HAL2     0.900000E-01   1.00800           0
      1969 MEMB     15       POPC     H12Y     HAL2     0.900000E-01   1.00800           0
      1970 MEMB     15       POPC     C313     CTL2    -0.180000       12.0110           0
      1971 MEMB     15       POPC     H13X     HAL2     0.900000E-01   1.00800           0
      1972 MEMB     15       POPC     H13Y     HAL2     0.900000E-01   1.00800           0
      1973 MEMB     15       POPC     C314     CTL2    -0.180000       12.0110           0
      1974 MEMB     15       POPC     H14X     HAL2     0.900000E-01   1.00800           0
      1975 MEMB     15       POPC     H14Y     HAL2     0.900000E-01   1.00800           0
      1976 MEMB     15       POPC     C315     CTL2    -0.180000       12.0110           0
      1977 MEMB     15       POPC     H15X     HAL2     0.900000E-01   1.00800           0
      1978 MEMB     15       POPC     H15Y     HAL2     0.900000E-01   1.00800           0
      1979 MEMB     15       POPC     C316     CTL3    -0.270000       12.0110           0
      1980 MEMB     15       POPC     H16X     HAL3     0.900000E-01   1.00800           0
      1981 MEMB     15       POPC     H16Y     HAL3     0.900000E-01   1.00800           0
      1982 MEMB     15       POPC     H16Z     HAL3     0.900000E-01   1.00800           0
      1983 MEMB     16       POPC     N        NTL     -0.600000       14.0070           0
      1984 MEMB     16       POPC     C12      CTL2    -0.100000       12.0110           0
      1985 MEMB     16       POPC     H12A     HL       0.250000       1.00800           0
      1986 MEMB     16       POPC     H12B     HL       0.250000       1.00800           0
      1987 MEMB     16       POPC     C13      CTL5    -0.350000       12.0110           0
      1988 MEMB     16       POPC     H13A     HL       0.250000       1.00800           0
      1989 MEMB     16       POPC     H13B     HL       0.250000       1.00800           0
      1990 MEMB     16       POPC     H13C     HL       0.250000       1.00800           0
      1991 MEMB     16       POPC     C14      CTL5    -0.350000       12.0110           0
      1992 MEMB     16       POPC     H14A     HL       0.250000       1.00800           0
      1993 MEMB     16       POPC     H14B     HL       0.250000       1.00800           0
      1994 MEMB     16       POPC     H14C     HL       0.250000       1.00800           0
      1995 MEMB     16       POPC     C15      CTL5    -0.350000       12.0110           0
      1996 MEMB     16       POPC     H15A     HL       0.250000       1.00800           0
      1997 MEMB     16       POPC     H15B     HL       0.250000       1.00800           0
      1998 MEMB     16       POPC     H15C     HL       0.250000       1.00800           0
      1999 MEMB     16       POPC     C11      CTL2    -0.800000E-01   12.0110           0
      2000 MEMB     16       POPC     H11A     HAL2     0.900000E-01   1.00800           0
      2001 MEMB     16       POPC     H11B     HAL2     0.900000E-01   1.00800           0
      2002 MEMB     16       POPC     P        PL        1.50000       30.9740           0
      2003 MEMB     16       POPC     O13      O2L     -0.780000       15.9994           0
      2004 MEMB     16       POPC     O14      O2L     -0.780000       15.9994           0
      2005 MEMB     16       POPC     O12      OSLP    -0.570000       15.9994           0
      2006 MEMB     16       POPC     O11      OSLP    -0.570000       15.9994           0
      2007 MEMB     16       POPC     C1       CTL2    -0.800000E-01   12.0110           0
      2008 MEMB     16       POPC     HA       HAL2     0.900000E-01   1.00800           0
      2009 MEMB     16       POPC     HB       HAL2     0.900000E-01   1.00800           0
      2010 MEMB     16       POPC     C2       CTL1     0.170000       12.0110           0
      2011 MEMB     16       POPC     HS       HAL1     0.900000E-01   1.00800           0
      2012 MEMB     16       POPC     O21      OSL     -0.490000       15.9994           0
      2013 MEMB     16       POPC     C21      CL       0.900000       12.0110           0
      2014 MEMB     16       POPC     O22      OBL     -0.630000       15.9994           0
      2015 MEMB     16       POPC     C22      CTL2    -0.220000       12.0110           0
      2016 MEMB     16       POPC     H2R      HAL2     0.900000E-01   1.00800           0
      2017 MEMB     16       POPC     H2S      HAL2     0.900000E-01   1.00800           0
      2018 MEMB     16       POPC     C3       CTL2     0.800000E-01   12.0110           0
      2019 MEMB     16       POPC     HX       HAL2     0.900000E-01   1.00800           0
      2020 MEMB     16       POPC     HY       HAL2     0.900000E-01   1.00800           0
      2021 MEMB     16       POPC     O31      OSL     -0.490000       15.9994           0
      2022 MEMB     16       POPC     C31      CL       0.900000       12.0110           0
      2023 MEMB     16       POPC     O32      OBL     -0.630000       15.9994           0
      2024 MEMB     16       POPC     C32      CTL2    -0.220000       12.0110           0
      2025 MEMB     16       POPC     H2X      HAL2     0.900000E-01   1.00800           0
      2026 MEMB     16       POPC     H2Y      HAL2     0.900000E-01   1.00800           0
      2027 MEMB     16       POPC     C23      CTL2    -0.180000       12.0110           0
      2028 MEMB     16       POPC     H3R      HAL2     0.900000E-01   1.00800           0
      2029 MEMB     16       POPC     H3S      HAL2     0.900000E-01   1.00800           0
      2030 MEMB     16       POPC     C24      CTL2    -0.180000       12.0110           0
      2031 MEMB     16       POPC     H4R      HAL2     0.900000E-01   1.00800           0
      2032 MEMB     16       POPC     H4S      HAL2     0.900000E-01   1.00800           0
      2033 MEMB     16       POPC     C25      CTL2    -0.180000       12.0110           0
      2034 MEMB     16       POPC     H5R      HAL2     0.900000E-01   1.00800           0
      2035 MEMB     16       POPC     H5S      HAL2     0.900000E-01   1.00800           0
      2036 MEMB     16       POPC     C26      CTL2    -0.180000       12.0110           0
      2037 MEMB     16       POPC     H6R      HAL2     0.900000E-01   1.00800           0
      2038 MEMB     16       POPC     H6S      HAL2     0.900000E-01   1.00800           0
      2039 MEMB     16       POPC     C27      CTL2    -0.180000       12.0110           0
      2040 MEMB     16       POPC     H7R      HAL2     0.900000E-01   1.00800           0
      2041 MEMB     16       POPC     H7S      HAL2     0.900000E-01   1.00800           0
      2042 MEMB     16       POPC     C28      CTL2    -0.180000       12.0110           0
      2043 MEMB     16       POPC     H8R      HAL2     0.900000E-01   1.00800           0
      2044 MEMB     16       POPC     H8S      HAL2     0.900000E-01   1.00800           0
      2045 MEMB     16       POPC     C29      CEL1    -0.150000       12.0110           0
      2046 MEMB     16       POPC     H91      HEL1     0.150000       1.00800           0
      2047 MEMB     16       POPC     C210     CEL1    -0.150000       12.0110           0
      2048 MEMB     16       POPC     H101     HEL1     0.150000       1.00800           0
      2049 MEMB     16       POPC     C211     CTL2    -0.180000       12.0110           0
      2050 MEMB     16       POPC     H11R     HAL2     0.900000E-01   1.00800           0
      2051 MEMB     16       POPC     H11S     HAL2     0.900000E-01   1.00800           0
      2052 MEMB     16       POPC     C212     CTL2    -0.180000       12.0110           0
      2053 MEMB     16       POPC     H12R     HAL2     0.900000E-01   1.00800           0
      2054 MEMB     16       POPC     H12S     HAL2     0.900000E-01   1.00800           0
      2055 MEMB     16       POPC     C213     CTL2    -0.180000       12.0110           0
      2056 MEMB     16       POPC     H13R     HAL2     0.900000E-01   1.00800           0
      2057 MEMB     16       POPC     H13S     HAL2     0.900000E-01   1.00800           0
      2058 MEMB     16       POPC     C214     CTL2    -0.180000       12.0110           0
      2059 MEMB     16       POPC     H14R     HAL2     0.900000E-01   1.00800           0
      2060 MEMB     16       POPC     H14S     HAL2     0.900000E-01   1.00800           0
      2061 MEMB     16       POPC     C215     CTL2    -0.180000       12.0110           0
      2062 MEMB     16       POPC     H15R     HAL2     0.900000E-01   1.00800           0
      2063 MEMB     16       POPC     H15S     HAL2     0.900000E-01   1.00800           0
      2064 MEMB     16       POPC     C216     CTL2    -0.180000       12.0110           0
      2065 MEMB     16       POPC     H16R     HAL2     0.900000E-01   1.00800           0
      2066 MEMB     16       POPC     H16S     HAL2     0.900000E-01   1.00800           0
      2067 MEMB     16       POPC     C217     CTL2    -0.180000       12.0110           0
      2068 MEMB     16       POPC     H17R     HAL2     0.900000E-01   1.00800           0
      2069 MEMB     16       POPC     H17S     HAL2     0.900000E-01   1.00800           0
      2070 MEMB     16       POPC     C218     CTL3    -0.270000       12.0110           0
      2071 MEMB     16       POPC     H18R     HAL3     0.900000E-01   1.00800           0
      2072 MEMB     16       POPC     H18S     HAL3     0.900000E-01   1.00800           0
      2073 MEMB     16       POPC     H18T     HAL3     0.900000E-01   1.00800           0
      2074 MEMB     16       POPC     C33      CTL2    -0.180000       12.0110           0
      2075 MEMB     16       POPC     H3X      HAL2     0.900000E-01   1.00800           0
      2076 MEMB     16       POPC     H3Y      HAL2     0.900000E-01   1.00800           0
      2077 MEMB     16       POPC     C34      CTL2    -0.180000       12.0110           0
      2078 MEMB     16       POPC     H4X      HAL2     0.900000E-01   1.00800           0
      2079 MEMB     16       POPC     H4Y      HAL2     0.900000E-01   1.00800           0
      2080 MEMB     16       POPC     C35      CTL2    -0.180000       12.0110           0
      2081 MEMB     16       POPC     H5X      HAL2     0.900000E-01   1.00800           0
      2082 MEMB     16       POPC     H5Y      HAL2     0.900000E-01   1.00800           0
      2083 MEMB     16       POPC     C36      CTL2    -0.180000       12.0110           0
      2084 MEMB     16       POPC     H6X      HAL2     0.900000E-01   1.00800           0
      2085 MEMB     16       POPC     H6Y      HAL2     0.900000E-01   1.00800           0
      2086 MEMB     16       POPC     C37      CTL2    -0.180000       12.0110           0
      2087 MEMB     16       POPC     H7X      HAL2     0.900000E-01   1.00800           0
      2088 MEMB     16       POPC     H7Y      HAL2     0.900000E-01   1.00800           0
      2089 MEMB     16       POPC     C38      CTL2    -0.180000       12.0110           0
      2090 MEMB     16       POPC     H8X      HAL2     0.900000E-01   1.00800           0
      2091 MEMB     16       POPC     H8Y      HAL2     0.900000E-01   1.00800           0
      2092 MEMB     16       POPC     C39      CTL2    -0.180000       12.0110           0
      2093 MEMB     16       POPC     H9X      HAL2     0.900000E-01   1.00800           0
      2094 MEMB     16       POPC     H9Y      HAL2     0.900000E-01   1.00800           0
      2095 MEMB     16       POPC     C310     CTL2    -0.180000       12.0110           0
      2096 MEMB     16       POPC     H10X     HAL2     0.900000E-01   1.00800           0
      2097 MEMB     16       POPC     H10Y     HAL2     0.900000E-01   1.00800           0
      2098 MEMB     16       POPC     C311     CTL2    -0.180000       12.0110           0
      2099 MEMB     16       POPC     H11X     HAL2     0.900000E-01   1.00800           0
      2100 MEMB     16       POPC     H11Y     HAL2     0.900000E-01   1.00800           0
      2101 MEMB     16       POPC     C312     CTL2    -0.180000       12.0110           0
      2102 MEMB     16       POPC     H12X     HAL2     0.900000E-01   1.00800           0
      2103 MEMB     16       POPC     H12Y     HAL2     0.900000E-01   1.00800           0
      2104 MEMB     16       POPC     C313     CTL2    -0.180000       12.0110           0
      2105 MEMB     16       POPC     H13X     HAL2     0.900000E-01   1.00800           0
      2106 MEMB     16       POPC     H13Y     HAL2     0.900000E-01   1.00800           0
      2107 MEMB     16       POPC     C314     CTL2    -0.180000       12.0110           0
      2108 MEMB     16       POPC     H14X     HAL2     0.900000E-01   1.00800           0
      2109 MEMB     16       POPC     H14Y     HAL2     0.900000E-01   1.00800           0
      2110 MEMB     16       POPC     C315     CTL2    -0.180000       12.0110           0
      2111 MEMB     16       POPC     H15X     HAL2     0.900000E-01   1.00800           0
      2112 MEMB     16       POPC     H15Y     HAL2     0.900000E-01   1.00800           0
      2113 MEMB     16       POPC     C316     CTL3    -0.270000       12.0110           0
      2114 MEMB     16       POPC     H16X     HAL3     0.900000E-01   1.00800           0
      2115 MEMB     16       POPC     H16Y     HAL3     0.900000E-01   1.00800           0
      2116 MEMB     16       POPC     H16Z     HAL3     0.900000E-01   1.00800           0
      2117 MEMB     17       POPC     N        NTL     -0.600000       14.0070           0
      2118 MEMB     17       POPC     C12      CTL2    -0.100000       12.0110           0
      2119 MEMB     17       POPC     H12A     HL       0.250000       1.00800           0
      2120 MEMB     17       POPC     H12B     HL       0.250000       1.00800           0
      2121 MEMB     17       POPC     C13      CTL5    -0.350000       12.0110           0
      2122 MEMB     17       POPC     H13A     HL       0.250000       1.00800           0
      2123 MEMB     17       POPC     H13B     HL       0.250000       1.00800           0
      2124 MEMB     17       POPC     H13C     HL       0.250000       1.00800           0
      2125 MEMB     17       POPC     C14      CTL5    -0.350000       12.0110           0
      2126 MEMB     17       POPC     H14A     HL       0.250000       1.00800           0
      2127 MEMB     17       POPC     H14B     HL       0.250000       1.00800           0
      2128 MEMB     17       POPC     H14C     HL       0.250000       1.00800           0
      2129 MEMB     17       POPC     C15      CTL5    -0.350000       12.0110           0
      2130 MEMB     17       POPC     H15A     HL       0.250000       1.00800           0
      2131 MEMB     17       POPC     H15B     HL       0.250000       1.00800           0
      2132 MEMB     17       POPC     H15C     HL       0.250000       1.00800           0
      2133 MEMB     17       POPC     C11      CTL2    -0.800000E-01   12.0110           0
      2134 MEMB     17       POPC     H11A     HAL2     0.900000E-01   1.00800           0
      2135 MEMB     17       POPC     H11B     HAL2     0.900000E-01   1.00800           0
      2136 MEMB     17       POPC     P        PL        1.50000       30.9740           0
      2137 MEMB     17       POPC     O13      O2L     -0.780000       15.9994           0
      2138 MEMB     17       POPC     O14      O2L     -0.780000       15.9994           0
      2139 MEMB     17       POPC     O12      OSLP    -0.570000       15.9994           0
      2140 MEMB     17       POPC     O11      OSLP    -0.570000       15.9994           0
      2141 MEMB     17       POPC     C1       CTL2    -0.800000E-01   12.0110           0
      2142 MEMB     17       POPC     HA       HAL2     0.900000E-01   1.00800           0
      2143 MEMB     17       POPC     HB       HAL2     0.900000E-01   1.00800           0
      2144 MEMB     17       POPC     C2       CTL1     0.170000       12.0110           0
      2145 MEMB     17       POPC     HS       HAL1     0.900000E-01   1.00800           0
      2146 MEMB     17       POPC     O21      OSL     -0.490000       15.9994           0
      2147 MEMB     17       POPC     C21      CL       0.900000       12.0110           0
      2148 MEMB     17       POPC     O22      OBL     -0.630000       15.9994           0
      2149 MEMB     17       POPC     C22      CTL2    -0.220000       12.0110           0
      2150 MEMB     17       POPC     H2R      HAL2     0.900000E-01   1.00800           0
      2151 MEMB     17       POPC     H2S      HAL2     0.900000E-01   1.00800           0
      2152 MEMB     17       POPC     C3       CTL2     0.800000E-01   12.0110           0
      2153 MEMB     17       POPC     HX       HAL2     0.900000E-01   1.00800           0
      2154 MEMB     17       POPC     HY       HAL2     0.900000E-01   1.00800           0
      2155 MEMB     17       POPC     O31      OSL     -0.490000       15.9994           0
      2156 MEMB     17       POPC     C31      CL       0.900000       12.0110           0
      2157 MEMB     17       POPC     O32      OBL     -0.630000       15.9994           0
      2158 MEMB     17       POPC     C32      CTL2    -0.220000       12.0110           0
      2159 MEMB     17       POPC     H2X      HAL2     0.900000E-01   1.00800           0
      2160 MEMB     17       POPC     H2Y      HAL2     0.900000E-01   1.00800           0
      2161 MEMB     17       POPC     C23      CTL2    -0.180000       12.0110           0
      2162 MEMB     17       POPC     H3R      HAL2     0.900000E-01   1.00800           0
      2163 MEMB     17       POPC     H3S      HAL2     0.900000E-01   1.00800           0
      2164 MEMB     17       POPC     C24      CTL2    -0.180000       12.0110           0
      2165 MEMB     17       POPC     H4R      HAL2     0.900000E-01   1.00800           0
      2166 MEMB     17       POPC     H4S      HAL2     0.900000E-01   1.00800           0
      2167 MEMB     17       POPC     C25      CTL2    -0.180000       12.0110           0
      2168 MEMB     17       POPC     H5R      HAL2     0.900000E-01   1.00800           0
      2169 MEMB     17       POPC     H5S      HAL2     0.900000E-01   1.00800           0
      2170 MEMB     17       POPC     C26      CTL2    -0.180000       12.0110           0
      2171 MEMB     17       POPC     H6R      HAL2     0.900000E-01   1.00800           0
      2172 MEMB     17       POPC     H6S      HAL2     0.900000E-01   1.00800           0
      2173 MEMB     17       POPC     C27      CTL2    -0.180000       12.0110           0
      2174 MEMB     17       POPC     H7R      HAL2     0.900000E-01   1.00800           0
      2175 MEMB     17       POPC     H7S      HAL2     0.900000E-01   1.00800           0
      2176 MEMB     17       POPC     C28      CTL2    -0.180000       12.0110           0
      2177 MEMB     17       POPC     H8R      HAL2     0.900000E-01   1.00800           0
      2178 MEMB     17       POPC     H8S      HAL2     0.900000E-01   1.00800           0
      2179 MEMB     17       POPC     C29      CEL1    -0.150000       12.0110           0
      2180 MEMB     17       POPC     H91      HEL1     0.150000       1.00800           0
      2181 MEMB     17       POPC     C210     CEL1    -0.150000       12.0110           0
      2182 MEMB     17       POPC     H101     HEL1     0.150000       1.00800           0
      2183 MEMB     17       POPC     C211     CTL2    -0.180000       12.0110           0
      2184 MEMB     17       POPC     H11R     HAL2     0.900000E-01   1.00800           0
      2185 MEMB     17       POPC     H11S     HAL2     0.900000E-01   1.00800           0
      2186 MEMB     17       POPC     C212     CTL2    -0.180000       12.0110           0
      2187 MEMB     17       POPC     H12R     HAL2     0.900000E-01   1.00800           0
      2188 MEMB     17       POPC     H12S     HAL2     0.900000E-01   1.00800           0
      2189 MEMB     17       POPC     C213     CTL2    -0.180000       12.0110           0
      2190 MEMB     17       POPC     H13R     HAL2     0.900000E-01   1.00800           0
      2191 MEMB     17       POPC     H13S     HAL2     0.900000E-01   1.00800           0
      2192 MEMB     17       POPC     C214     CTL2    -0.180000       12.0110           0
      2193 MEMB     17       POPC     H14R     HAL2     0.900000E-01   1.00800           0
      2194 MEMB     17       POPC     H14S     HAL2     0.900000E-01   1.00800           0
      2195 MEMB     17       POPC     C215     CTL2    -0.180000       12.0110           0
      2196 MEMB     17       POPC     H15R     HAL2     0.900000E-01   1.00800           0
      2197 MEMB     17       POPC     H15S     HAL2     0.900000E-01   1.00800           0
      2198 MEMB     17       POPC     C216     CTL2    -0.180000       12.0110           0
      2199 MEMB     17       POPC     H16R     HAL2     0.900000E-01   1.00800           0
      2200 MEMB     17       POPC     H16S     HAL2     0.900000E-01   1.00800           0
      2201 MEMB     17       POPC     C217     CTL2    -0.180000       12.0110           0
      2202 MEMB     17       POPC     H17R     HAL2     0.900000E-01   1.00800           0
      2203 MEMB     17       POPC     H17S     HAL2     0.900000E-01   1.00800           0
      2204 MEMB     17       POPC     C218     CTL3    -0.270000       12.0110           0
      2205 MEMB     17       POPC     H18R     HAL3     0.900000E-01   1.00800           0
      2206 MEMB     17       POPC     H18S     HAL3     0.900000E-01   1.00800           0
      2207 MEMB     17       POPC     H18T     HAL3     0.900000E-01   1.00800           0
      2208 MEMB     17       POPC     C33      CTL2    -0.180000       12.0110           0
      2209 MEMB     17       POPC     H3X      HAL2     0.900000E-01   1.00800           0
      2210 MEMB     17       POPC     H3Y      HAL2     0.900000E-01   1.00800           0
      2211 MEMB     17       POPC     C34      CTL2    -0.180000       12.0110           0
      2212 MEMB     17       POPC     H4X      HAL2     0.900000E-01   1.00800           0
      2213 MEMB     17       POPC     H4Y      HAL2     0.900000E-01   1.00800           0
      2214 MEMB     17       POPC     C35      CTL2    -0.180000       12.0110           0
      2215 MEMB     17       POPC     H5X      HAL2     0.900000E-01   1.00800           0
      2216 MEMB     17       POPC     H5Y      HAL2     0.900000E-01   1.00800           0
      2217 MEMB     17       POPC     C36      CTL2    -0.180000       12.0110           0
      2218 MEMB     17       POPC     H6X      HAL2     0.900000E-01   1.00800           0
      2219 MEMB     17       POPC     H6Y      HAL2     0.900000E-01   1.00800           0
      2220 MEMB     17       POPC     C37      CTL2    -0.180000       12.0110           0
      2221 MEMB     17       POPC     H7X      HAL2     0.900000E-01   1.00800           0
      2222 MEMB     17       POPC     H7Y      HAL2     0.900000E-01   1.00800           0
      2223 MEMB     17       POPC     C38      CTL2    -0.180000       12.0110           0
      2224 MEMB     17       POPC     H8X      HAL2     0.900000E-01   1.00800           0
      2225 MEMB     17       POPC     H8Y      HAL2     0.900000E-01   1.00800           0
      2226 MEMB     17       POPC     C39      CTL2    -0.180000       12.0110           0
      2227 MEMB     17       POPC     H9X      HAL2     0.900000E-01   1.00800           0
      2228 MEMB     17       POPC     H9Y      HAL2     0.900000E-01   1.00800           0
      2229 MEMB     17       POPC     C310     CTL2    -0.180000       12.0110           0
      2230 MEMB     17       POPC     H10X     HAL2     0.900000E-01   1.00800           0
      2231 MEMB     17       POPC     H10Y     HAL2     0.900000E-01   1.00800           0
      2232 MEMB     17       POPC     C311     CTL2    -0.180000       12.0110           0
      2233 MEMB     17       POPC     H11X     HAL2     0.900000E-01   1.00800           0
      2234 MEMB     17       POPC     H11Y     HAL2     0.900000E-01   1.00800           0
      2235 MEMB     17       POPC     C312     CTL2    -0.180000       12.0110           0
      2236 MEMB     17       POPC     H12X     HAL2     0.900000E-01   1.00800           0
      2237 MEMB     17       POPC     H12Y     HAL2     0.900000E-01   1.00800           0
      2238 MEMB     17       POPC     C313     CTL2    -0.180000       12.0110           0
      2239 MEMB     17       POPC     H13X     HAL2     0.900000E-01   1.00800           0
      2240 MEMB     17       POPC     H13Y     HAL2     0.900000E-01   1.00800           0
      2241 MEMB     17       POPC     C314     CTL2    -0.180000       12.0110           0
      2242 MEMB     17       POPC     H14X     HAL2     0.900000E-01   1.00800           0
      2243 MEMB     17       POPC     H14Y     HAL2     0.900000E-01   1.00800           0
      2244 MEMB     17       POPC     C315     CTL2    -0.180000       12.0110           0
      2245 MEMB     17       POPC     H15X     HAL2     0.900000E-01   1.00800           0
      2246 MEMB     17       POPC     H15Y     HAL2     0.900000E-01   1.00800           0
      2247 MEMB     17       POPC     C316     CTL3    -0.270000       12.0110           0
      2248 MEMB     17       POPC     H16X     HAL3     0.900000E-01   1.00800           0
      2249 MEMB     17       POPC     H16Y     HAL3     0.900000E-01   1.00800           0
      2250 MEMB     17       POPC     H16Z     HAL3     0.900000E-01   1.00800           0
      2251 MEMB     18       POPC     N        NTL     -0.600000       14.0070           0
      2252 MEMB     18       POPC     C12      CTL2    -0.100000       12.0110           0
      2253 MEMB     18       POPC     H12A     HL       0.250000       1.00800           0
      2254 MEMB     18       POPC     H12B     HL       0.250000       1.00800           0
      2255 MEMB     18       POPC     C13      CTL5    -0.350000       12.0110           0
      2256 MEMB     18       POPC     H13A     HL       0.250000       1.00800           0
      2257 MEMB     18       POPC     H13B     HL       0.250000       1.00800           0
      2258 MEMB     18       POPC     H13C     HL       0.250000       1.00800           0
      2259 MEMB     18       POPC     C14      CTL5    -0.350000       12.0110           0
      2260 MEMB     18       POPC     H14A     HL       0.250000       1.00800           0
      2261 MEMB     18       POPC     H14B     HL       0.250000       1.00800           0
      2262 MEMB     18       POPC     H14C     HL       0.250000       1.00800           0
      2263 MEMB     18       POPC     C15      CTL5    -0.350000       12.0110           0
      2264 MEMB     18       POPC     H15A     HL       0.250000       1.00800           0
      2265 MEMB     18       POPC     H15B     HL       0.250000       1.00800           0
      2266 MEMB     18       POPC     H15C     HL       0.250000       1.00800           0
      2267 MEMB     18       POPC     C11      CTL2    -0.800000E-01   12.0110           0
      2268 MEMB     18       POPC     H11A     HAL2     0.900000E-01   1.00800           0
      2269 MEMB     18       POPC     H11B     HAL2     0.900000E-01   1.00800           0
      2270 MEMB     18       POPC     P        PL        1.50000       30.9740           0
      2271 MEMB     18       POPC     O13      O2L     -0.780000       15.9994           0
      2272 MEMB     18       POPC     O14      O2L     -0.780000       15.9994           0
      2273 MEMB     18       POPC     O12      OSLP    -0.570000       15.9994           0
      2274 MEMB     18       POPC     O11      OSLP    -0.570000       15.9994           0
      2275 MEMB     18       POPC     C1       CTL2    -0.800000E-01   12.0110           0
      2276 MEMB     18       POPC     HA       HAL2     0.900000E-01   1.00800           0
      2277 MEMB     18       POPC     HB       HAL2     0.900000E-01   1.00800           0
      2278 MEMB     18       POPC     C2       CTL1     0.170000       12.0110           0
      2279 MEMB     18       POPC     HS       HAL1     0.900000E-01   1.00800           0
      2280 MEMB     18       POPC     O21      OSL     -0.490000       15.9994           0
      2281 MEMB     18       POPC     C21      CL       0.900000       12.0110           0
      2282 MEMB     18       POPC     O22      OBL     -0.630000       15.9994           0
      2283 MEMB     18       POPC     C22      CTL2    -0.220000       12.0110           0
      2284 MEMB     18       POPC     H2R      HAL2     0.900000E-01   1.00800           0
      2285 MEMB     18       POPC     H2S      HAL2     0.900000E-01   1.00800           0
      2286 MEMB     18       POPC     C3       CTL2     0.800000E-01   12.0110           0
      2287 MEMB     18       POPC     HX       HAL2     0.900000E-01   1.00800           0
      2288 MEMB     18       POPC     HY       HAL2     0.900000E-01   1.00800           0
      2289 MEMB     18       POPC     O31      OSL     -0.490000       15.9994           0
      2290 MEMB     18       POPC     C31      CL       0.900000       12.0110           0
      2291 MEMB     18       POPC     O32      OBL     -0.630000       15.9994           0
      2292 MEMB     18       POPC     C32      CTL2    -0.220000       12.0110           0
      2293 MEMB     18       POPC     H2X      HAL2     0.900000E-01   1.00800           0
      2294 MEMB     18       POPC     H2Y      HAL2     0.900000E-01   1.00800           0
      2295 MEMB     18       POPC     C23      CTL2    -0.180000       12.0110           0
      2296 MEMB     18       POPC     H3R      HAL2     0.900000E-01   1.00800           0
      2297 MEMB     18       POPC     H3S      HAL2     0.900000E-01   1.00800           0
      2298 MEMB     18       POPC     C24      CTL2    -0.180000       12.0110           0
      2299 MEMB     18       POPC     H4R      HAL2     0.900000E-01   1.00800           0
      2300 MEMB     18       POPC     H4S      HAL2     0.900000E-01   1.00800           0
      2301 MEMB     18       POPC     C25      CTL2    -0.180000       12.0110           0
      2302 MEMB     18       POPC     H5R      HAL2     0.900000E-01   1.00800           0
      2303 MEMB     18       POPC     H5S      HAL2     0.900000E-01   1.00800           0
      2304 MEMB     18       POPC     C26      CTL2    -0.180000       12.0110           0
      2305 MEMB     18       POPC     H6R      HAL2     0.900000E-01   1.00800           0
      2306 MEMB     18       POPC     H6S      HAL2     0.900000E-01   1.00800           0
      2307 MEMB     18       POPC     C27      CTL2    -0.180000       12.0110           0
      2308 MEMB     18       POPC     H7R      HAL2     0.900000E-01   1.00800           0
      2309 MEMB     18       POPC     H7S      HAL2     0.900000E-01   1.00800           0
      2310 MEMB     18       POPC     C28      CTL2    -0.180000       12.0110           0
      2311 MEMB     18       POPC     H8R      HAL2     0.900000E-01   1.00800           0
      2312 MEMB     18       POPC     H8S      HAL2     0.900000E-01   1.00800           0
      2313 MEMB     18       POPC     C29      CEL1    -0.150000       12.0110           0
      2314 MEMB     18       POPC     H91      HEL1     0.150000       1.00800           0
      2315 MEMB     18       POPC     C210     CEL1    -0.150000       12.0110           0
      2316 MEMB     18       POPC     H101     HEL1     0.150000       1.00800           0
      2317 MEMB     18       POPC     C211     CTL2    -0.180000       12.0110           0
      2318 MEMB     18       POPC     H11R     HAL2     0.900000E-01   1.00800           0
      2319 MEMB     18       POPC     H11S     HAL2     0.900000E-01   1.00800           0
      2320 MEMB     18       POPC     C212     CTL2    -0.180000       12.0110           0
      2321 MEMB     18       POPC     H12R     HAL2     0.900000E-01   1.00800           0
      2322 MEMB     18       POPC     H12S     HAL2     0.900000E-01   1.00800           0
      2323 MEMB     18       POPC     C213     CTL2    -0.180000       12.0110           0
      2324 MEMB     18       POPC     H13R     HAL2     0.900000E-01   1.00800           0
      2325 MEMB     18       POPC     H13S     HAL2     0.900000E-01   1.00800           0
      2326 MEMB     18       POPC     C214     CTL2    -0.180000       12.0110           0
      2327 MEMB     18       POPC     H14R     HAL2     0.900000E-01   1.00800           0
      2328 MEMB     18       POPC     H14S     HAL2     0.900000E-01   1.00800           0
      2329 MEMB     18       POPC     C215     CTL2    -0.180000       12.0110           0
      2330 MEMB     18       POPC     H15R     HAL2     0.900000E-01   1.00800           0
      2331 MEMB     18       POPC     H15S     HAL2     0.900000E-01   1.00800           0
      2332 MEMB     18       POPC     C216     CTL2    -0.180000       12.0110           0
      2333 MEMB     18       POPC     H16R     HAL2     0.900000E-01   1.00800           0
      2334 MEMB     18       POPC     H16S     HAL2     0.900000E-01   1.00800           0
      2335 MEMB     18       POPC     C217     CTL2    -0.180000       12.0110           0
      2336 MEMB     18       POPC     H17R     HAL2     0.900000E-01   1.00800           0
      2337 MEMB     18       POPC     H17S     HAL2     0.900000E-01   1.00800           0
      2338 MEMB     18       POPC     C218     CTL3    -0.270000       12.0110           0
      2339 MEMB     18       POPC     H18R     HAL3     0.900000E-01   1.00800           0
      2340 MEMB     18       POPC     H18S     HAL3     0.900000E-01   1.00800           0
      2341 MEMB     18       POPC     H18T     HAL3     0.900000E-01   1.00800           0
      2342 MEMB     18       POPC     C33      CTL2    -0.180000       12.0110           0
      2343 MEMB     18       POPC     H3X      HAL2     0.900000E-01   1.00800           0
      2344 MEMB     18       POPC     H3Y      HAL2     0.900000E-01   1.00800           0
      2345 MEMB     18       POPC     C34      CTL2    -0.180000       12.0110           0
      2346 MEMB     18       POPC     H4X      HAL2     0.900000E-01   1.00800           0
      2347 MEMB     18       POPC     H4Y      HAL2     0.900000E-01   1.00800           0
      2348 MEMB     18       POPC     C35      CTL2    -0.180000       12.0110           0
      2349 MEMB     18       POPC     H5X      HAL2     0.900000E-01   1.00800           0
      2350 MEMB     18       POPC     H5Y      HAL2     0.900000E-01   1.00800           0
      2351 MEMB     18       POPC     C36      CTL2    -0.180000       12.0110           0
      2352 MEMB     18       POPC     H6X      HAL2     0.900000E-01   1.00800           0
      2353 MEMB     18       POPC     H6Y      HAL2     0.900000E-01   1.00800           0
      2354 MEMB     18       POPC     C37      CTL2    -0.180000       12.0110           0
      2355 MEMB     18       POPC     H7X      HAL2     0.900000E-01   1.00800           0
      2356 MEMB     18       POPC     H7Y      HAL2     0.900000E-01   1.00800           0
      2357 MEMB     18       POPC     C38      CTL2    -0.180000       12.0110           0
      2358 MEMB     18       POPC     H8X      HAL2     0.900000E-01   1.00800           0
      2359 MEMB     18       POPC     H8Y      HAL2     0.900000E-01   1.00800           0
      2360 MEMB     18       POPC     C39      CTL2    -0.180000       12.0110           0
      2361 MEMB     18       POPC     H9X      HAL2     0.900000E-01   1.00800           0
      2362 MEMB     18       POPC     H9Y      HAL2     0.900000E-01   1.00800           0
      2363 MEMB     18       POPC     C310     CTL2    -0.180000       12.0110           0
      2364 MEMB     18       POPC     H10X     HAL2     0.900000E-01   1.00800           0
      2365 MEMB     18       POPC     H10Y     HAL2     0.900000E-01   1.00800           0
      2366 MEMB     18       POPC     C311     CTL2    -0.180000       12.0110           0
      2367 MEMB     18       POPC     H11X     HAL2     0.900000E-01   1.00800           0
      2368 MEMB     18       POPC     H11Y     HAL2     0.900000E-01   1.00800           0
      2369 MEMB     18       POPC     C312     CTL2    -0.180000       12.0110           0
      2370 MEMB     18       POPC     H12X     HAL2     0.900000E-01   1.00800           0
      2371 MEMB     18       POPC     H12Y     HAL2     0.900000E-01   1.00800           0
      2372 MEMB     18       POPC     C313     CTL2    -0.180000       12.0110           0
      2373 MEMB     18       POPC     H13X     HAL2     0.900000E-01   1.00800           0
      2374 MEMB     18       POPC     H13Y     HAL2     0.900000E-01   1.00800           0
      2375 MEMB     18       POPC     C314     CTL2    -0.180000       12.0110           0
      2376 MEMB     18       POPC     H14X     HAL2     0.900000E-01   1.00800           0
      2377 MEMB     18       POPC     H14Y     HAL2     0.900000E-01   1.00800           0
      2378 MEMB     18       POPC     C315     CTL2    -0.180000       12.0110           0
      2379 MEMB     18       POPC     H15X     HAL2     0.900000E-01   1.00800           0
      2380 MEMB     18       POPC     H15Y     HAL2     0.900000E-01   1.00800           0
      2381 MEMB     18       POPC     C316     CTL3    -0.270000       12.0110           0
      2382 MEMB     18       POPC     H16X     HAL3     0.900000E-01   1.00800           0
      2383 MEMB     18       POPC     H16Y     HAL3     0.900000E-01   1.00800           0
      2384 MEMB     18       POPC     H16Z     HAL3     0.900000E-01   1.00800           0
      2385 MEMB     19       POPC     N        NTL     -0.600000       14.0070           0
      2386 MEMB     19       POPC     C12      CTL2    -0.100000       12.0110           0
      2387 MEMB     19       POPC     H12A     HL       0.250000       1.00800           0
      2388 MEMB     19       POPC     H12B     HL       0.250000       1.00800           0
      2389 MEMB     19       POPC     C13      CTL5    -0.350000       12.0110           0
      2390 MEMB     19       POPC     H13A     HL       0.250000       1.00800           0
      2391 MEMB     19       POPC     H13B     HL       0.250000       1.00800           0
      2392 MEMB     19       POPC     H13C     HL       0.250000       1.00800           0
      2393 MEMB     19       POPC     C14      CTL5    -0.350000       12.0110           0
      2394 MEMB     19       POPC     H14A     HL       0.250000       1.00800           0
      2395 MEMB     19       POPC     H14B     HL       0.250000       1.00800           0
      2396 MEMB     19       POPC     H14C     HL       0.250000       1.00800           0
      2397 MEMB     19       POPC     C15      CTL5    -0.350000       12.0110           0
      2398 MEMB     19       POPC     H15A     HL       0.250000       1.00800           0
      2399 MEMB     19       POPC     H15B     HL       0.250000       1.00800           0
      2400 MEMB     19       POPC     H15C     HL       0.250000       1.00800           0
      2401 MEMB     19       POPC     C11      CTL2    -0.800000E-01   12.0110           0
      2402 MEMB     19       POPC     H11A     HAL2     0.900000E-01   1.00800           0
      2403 MEMB     19       POPC     H11B     HAL2     0.900000E-01   1.00800           0
      2404 MEMB     19       POPC     P        PL        1.50000       30.9740           0
      2405 MEMB     19       POPC     O13      O2L     -0.780000       15.9994           0
      2406 MEMB     19       POPC     O14      O2L     -0.780000       15.9994           0
      2407 MEMB     19       POPC     O12      OSLP    -0.570000       15.9994           0
      2408 MEMB     19       POPC     O11      OSLP    -0.570000       15.9994           0
      2409 MEMB     19       POPC     C1       CTL2    -0.800000E-01   12.0110           0
      2410 MEMB     19       POPC     HA       HAL2     0.900000E-01   1.00800           0
      2411 MEMB     19       POPC     HB       HAL2     0.900000E-01   1.00800           0
      2412 MEMB     19       POPC     C2       CTL1     0.170000       12.0110           0
      2413 MEMB     19       POPC     HS       HAL1     0.900000E-01   1.00800           0
      2414 MEMB     19       POPC     O21      OSL     -0.490000       15.9994           0
      2415 MEMB     19       POPC     C21      CL       0.900000       12.0110           0
      2416 MEMB     19       POPC     O22      OBL     -0.630000       15.9994           0
      2417 MEMB     19       POPC     C22      CTL2    -0.220000       12.0110           0
      2418 MEMB     19       POPC     H2R      HAL2     0.900000E-01   1.00800           0
      2419 MEMB     19       POPC     H2S      HAL2     0.900000E-01   1.00800           0
      2420 MEMB     19       POPC     C3       CTL2     0.800000E-01   12.0110           0
      2421 MEMB     19       POPC     HX       HAL2     0.900000E-01   1.00800           0
      2422 MEMB     19       POPC     HY       HAL2     0.900000E-01   1.00800           0
      2423 MEMB     19       POPC     O31      OSL     -0.490000       15.9994           0
      2424 MEMB     19       POPC     C31      CL       0.900000       12.0110           0
      2425 MEMB     19       POPC     O32      OBL     -0.630000       15.9994           0
      2426 MEMB     19       POPC     C32      CTL2    -0.220000       12.0110           0
      2427 MEMB     19       POPC     H2X      HAL2     0.900000E-01   1.00800           0
      2428 MEMB     19       POPC     H2Y      HAL2     0.900000E-01   1.00800           0
      2429 MEMB     19       POPC     C23      CTL2    -0.180000       12.0110           0
      2430 MEMB     19       POPC     H3R      HAL2     0.900000E-01   1.00800           0
      2431 MEMB     19       POPC     H3S      HAL2     0.900000E-01   1.00800           0
      2432 MEMB     19       POPC     C24      CTL2    -0.180000       12.0110           0
      2433 MEMB     19       POPC     H4R      HAL2     0.900000E-01   1.00800           0
      2434 MEMB     19       POPC     H4S      HAL2     0.900000E-01   1.00800           0
      2435 MEMB     19       POPC     C25      CTL2    -0.180000       12.0110           0
      2436 MEMB     19       POPC     H5R      HAL2     0.900000E-01   1.00800           0
      2437 MEMB     19       POPC     H5S      HAL2     0.900000E-01   1.00800           0
      2438 MEMB     19       POPC     C26      CTL2    -0.180000       12.0110           0
      2439 MEMB     19       POPC     H6R      HAL2     0.900000E-01   1.00800           0
      2440 MEMB     19       POPC     H6S      HAL2     0.900000E-01   1.00800           0
      2441 MEMB     19       POPC     C27      CTL2    -0.180000       12.0110           0
      2442 MEMB     19       POPC     H7R      HAL2     0.900000E-01   1.00800           0
      2443 MEMB     19       POPC     H7S      HAL2     0.900000E-01   1.00800           0
      2444 MEMB     19       POPC     C28      CTL2    -0.180000       12.0110           0
      2445 MEMB     19       POPC     H8R      HAL2     0.900000E-01   1.00800           0
      2446 MEMB     19       POPC     H8S      HAL2     0.900000E-01   1.00800           0
      2447 MEMB     19       POPC     C29      CEL1    -0.150000       12.0110           0
      2448 MEMB     19       POPC     H91      HEL1     0.150000       1.00800           0
      2449 MEMB     19       POPC     C210     CEL1    -0.150000       12.0110           0
      2450 MEMB     19       POPC     H101     HEL1     0.150000       1.00800           0
      2451 MEMB     19       POPC     C211     CTL2    -0.180000       12.0110           0
      2452 MEMB     19       POPC     H11R     HAL2     0.900000E-01   1.00800           0
      2453 MEMB     19       POPC     H11S     HAL2     0.900000E-01   1.00800           0
      2454 MEMB     19       POPC     C212     CTL2    -0.180000       12.0110           0
      2455 MEMB     19       POPC     H12R     HAL2     0.900000E-01   1.00800           0
      2456 MEMB     19       POPC     H12S     HAL2     0.900000E-01   1.00800           0
      2457 MEMB     19       POPC     C213     CTL2    -0.180000       12.0110           0
      2458 MEMB     19       POPC     H13R     HAL2     0.900000E-01   1.00800           0
      2459 MEMB     19       POPC     H13S     HAL2     0.900000E-01   1.00800           0
      2460 MEMB     19       POPC     C214     CTL2    -0.180000       12.0110           0
      2461 MEMB     19       POPC     H14R     HAL2     0.900000E-01   1.00800           0
      2462 MEMB     19       POPC     H14S     HAL2     0.900000E-01   1.00800           0
      2463 MEMB     19       POPC     C215     CTL2    -0.180000       12.0110           0
      2464 MEMB     19       POPC     H15R     HAL2     0.900000E-01   1.00800           0
      2465 MEMB     19       POPC     H15S     HAL2     0.900000E-01   1.00800           0
      2466 MEMB     19       POPC     C216     CTL2    -0.180000       12.0110           0
      2467 MEMB     19       POPC     H16R     HAL2     0.900000E-01   1.00800           0
      2468 MEMB     19       POPC     H16S     HAL2     0.900000E-01   1.00800           0
      2469 MEMB     19       POPC     C217     CTL2    -0.180000       12.0110           0
      2470 MEMB     19       POPC     H17R     HAL2     0.900000E-01   1.00800           0
      2471 MEMB     19       POPC     H17S     HAL2     0.900000E-01   1.00800           0
      2472 MEMB     19       POPC     C218     CTL3    -0.270000       12.0110           0
      2473 MEMB     19       POPC     H18R     HAL3     0.900000E-01   1.00800           0
      2474 MEMB     19       POPC     H18S     HAL3     0.900000E-01   1.00800           0
      2475 MEMB     19       POPC     H18T     HAL3     0.900000E-01   1.00800           0
      2476 MEMB     19       POPC     C33      CTL2    -0.180000       12.0110           0
      2477 MEMB     19       POPC     H3X      HAL2     0.900000E-01   1.00800           0
      2478 MEMB     19       POPC     H3Y      HAL2     0.900000E-01   1.00800           0
      2479 MEMB     19       POPC     C34      CTL2    -0.180000       12.0110           0
      2480 MEMB     19       POPC     H4X      HAL2     0.900000E-01   1.00800           0
      2481 MEMB     19       POPC     H4Y      HAL2     0.900000E-01   1.00800           0
      2482 MEMB     19       POPC     C35      CTL2    -0.180000       12.0110           0
      2483 MEMB     19       POPC     H5X      HAL2     0.900000E-01   1.00800           0
      2484 MEMB     19       POPC     H5Y      HAL2     0.900000E-01   1.00800           0
      2485 MEMB     19       POPC     C36      CTL2    -0.180000       12.0110           0
      2486 MEMB     19       POPC     H6X      HAL2     0.900000E-01   1.00800           0
      2487 MEMB     19       POPC     H6Y      HAL2     0.900000E-01   1.00800           0
      2488 MEMB     19       POPC     C37      CTL2    -0.180000       12.0110           0
      2489 MEMB     19       POPC     H7X      HAL2     0.900000E-01   1.00800           0
      2490 MEMB     19       POPC     H7Y      HAL2     0.900000E-01   1.00800           0
      2491 MEMB     19       POPC     C38      CTL2    -0.180000       12.0110           0
      2492 MEMB     19       POPC     H8X      HAL2     0.900000E-01   1.00800           0
      2493 MEMB     19       POPC     H8Y      HAL2     0.900000E-01   1.00800           0
      2494 MEMB     19       POPC     C39      CTL2    -0.180000       12.0110           0
      2495 MEMB     19       POPC     H9X      HAL2     0.900000E-01   1.00800           0
      2496 MEMB     19       POPC     H9Y      HAL2     0.900000E-01   1.00800           0
      2497 MEMB     19       POPC     C310     CTL2    -0.180000       12.0110           0
      2498 MEMB     19       POPC     H10X     HAL2     0.900000E-01   1.00800           0
      2499 MEMB     19       POPC     H10Y     HAL2     0.900000E-01   1.00800           0
      2500 MEMB     19       POPC     C311     CTL2    -0.180000       12.0110           0
      2501 MEMB     19       POPC     H11X     HAL2     0.900000E-01   1.00800           0
      2502 MEMB     19       POPC     H11Y     HAL2     0.900000E-01   1.00800           0
      2503 MEMB     19       POPC     C312     CTL2    -0.180000       12.0110           0
      2504 MEMB     19       POPC     H12X     HAL2     0.900000E-01   1.00800           0
      2505 MEMB     19       POPC     H12Y     HAL2     0.900000E-01   1.00800           0
      2506 MEMB     19       POPC     C313     CTL2    -0.180000       12.0110           0
      2507 MEMB     19       POPC     H13X     HAL2     0.900000E-01   1.00800           0
      2508 MEMB     19       POPC     H13Y     HAL2     0.900000E-01   1.00800           0
      2509 MEMB     19       POPC     C314     CTL2    -0.180000       12.0110           0
      2510 MEMB     19       POPC     H14X     HAL2     0.900000E-01   1.00800           0
      2511 MEMB     19       POPC     H14Y     HAL2     0.900000E-01   1.00800           0
      2512 MEMB     19       POPC     C315     CTL2    -0.180000       12.0110           0
      2513 MEMB     19       POPC     H15X     HAL2     0.900000E-01   1.00800           0
      2514 MEMB     19       POPC     H15Y     HAL2     0.900000E-01   1.00800           0
      2515 MEMB     19       POPC     C316     CTL3    -0.270000       12.0110           0
      2516 MEMB     19       POPC     H16X     HAL3     0.900000E-01   1.00800           0
      2517 MEMB     19       POPC     H16Y     HAL3     0.900000E-01   1.00800           0
      2518 MEMB     19       POPC     H16Z     HAL3     0.900000E-01   1.00800           0
      2519 MEMB     20       POPC     N        NTL     -0.600000       14.0070           0
      2520 MEMB     20       POPC     C12      CTL2    -0.100000       12.0110           0
      2521 MEMB     20       POPC     H12A     HL       0.250000       1.00800           0
      2522 MEMB     20       POPC     H12B     HL       0.250000       1.00800           0
      2523 MEMB     20       POPC     C13      CTL5    -0.350000       12.0110           0
      2524 MEMB     20       POPC     H13A     HL       0.250000       1.00800           0
      2525 MEMB     20       POPC     H13B     HL       0.250000       1.00800           0
      2526 MEMB     20       POPC     H13C     HL       0.250000       1.00800           0
      2527 MEMB     20       POPC     C14      CTL5    -0.350000       12.0110           0
      2528 MEMB     20       POPC     H14A     HL       0.250000       1.00800           0
      2529 MEMB     20       POPC     H14B     HL       0.250000       1.00800           0
      2530 MEMB     20       POPC     H14C     HL       0.250000       1.00800           0
      2531 MEMB     20       POPC     C15      CTL5    -0.350000       12.0110           0
      2532 MEMB     20       POPC     H15A     HL       0.250000       1.00800           0
      2533 MEMB     20       POPC     H15B     HL       0.250000       1.00800           0
      2534 MEMB     20       POPC     H15C     HL       0.250000       1.00800           0
      2535 MEMB     20       POPC     C11      CTL2    -0.800000E-01   12.0110           0
      2536 MEMB     20       POPC     H11A     HAL2     0.900000E-01   1.00800           0
      2537 MEMB     20       POPC     H11B     HAL2     0.900000E-01   1.00800           0
      2538 MEMB     20       POPC     P        PL        1.50000       30.9740           0
      2539 MEMB     20       POPC     O13      O2L     -0.780000       15.9994           0
      2540 MEMB     20       POPC     O14      O2L     -0.780000       15.9994           0
      2541 MEMB     20       POPC     O12      OSLP    -0.570000       15.9994           0
      2542 MEMB     20       POPC     O11      OSLP    -0.570000       15.9994           0
      2543 MEMB     20       POPC     C1       CTL2    -0.800000E-01   12.0110           0
      2544 MEMB     20       POPC     HA       HAL2     0.900000E-01   1.00800           0
      2545 MEMB     20       POPC     HB       HAL2     0.900000E-01   1.00800           0
      2546 MEMB     20       POPC     C2       CTL1     0.170000       12.0110           0
      2547 MEMB     20       POPC     HS       HAL1     0.900000E-01   1.00800           0
      2548 MEMB     20       POPC     O21      OSL     -0.490000       15.9994           0
      2549 MEMB     20       POPC     C21      CL       0.900000       12.0110           0
      2550 MEMB     20       POPC     O22      OBL     -0.630000       15.9994           0
      2551 MEMB     20       POPC     C22      CTL2    -0.220000       12.0110           0
      2552 MEMB     20       POPC     H2R      HAL2     0.900000E-01   1.00800           0
      2553 MEMB     20       POPC     H2S      HAL2     0.900000E-01   1.00800           0
      2554 MEMB     20       POPC     C3       CTL2     0.800000E-01   12.0110           0
      2555 MEMB     20       POPC     HX       HAL2     0.900000E-01   1.00800           0
      2556 MEMB     20       POPC     HY       HAL2     0.900000E-01   1.00800           0
      2557 MEMB     20       POPC     O31      OSL     -0.490000       15.9994           0
      2558 MEMB     20       POPC     C31      CL       0.900000       12.0110           0
      2559 MEMB     20       POPC     O32      OBL     -0.630000       15.9994           0
      2560 MEMB     20       POPC     C32      CTL2    -0.220000       12.0110           0
      2561 MEMB     20       POPC     H2X      HAL2     0.900000E-01   1.00800           0
      2562 MEMB     20       POPC     H2Y      HAL2     0.900000E-01   1.00800           0
      2563 MEMB     20       POPC     C23      CTL2    -0.180000       12.0110           0
      2564 MEMB     20       POPC     H3R      HAL2     0.900000E-01   1.00800           0
      2565 MEMB     20       POPC     H3S      HAL2     0.900000E-01   1.00800           0
      2566 MEMB     20       POPC     C24      CTL2    -0.180000       12.0110           0
      2567 MEMB     20       POPC     H4R      HAL2     0.900000E-01   1.00800           0
      2568 MEMB     20       POPC     H4S      HAL2     0.900000E-01   1.00800           0
      2569 MEMB     20       POPC     C25      CTL2    -0.180000       12.0110           0
      2570 MEMB     20       POPC     H5R      HAL2     0.900000E-01   1.00800           0
      2571 MEMB     20       POPC     H5S      HAL2     0.900000E-01   1.00800           0
      2572 MEMB     20       POPC     C26      CTL2    -0.180000       12.0110           0
      2573 MEMB     20       POPC     H6R      HAL2     0.900000E-01   1.00800           0
      2574 MEMB     20       POPC     H6S      HAL2     0.900000E-01   1.00800           0
      2575 MEMB     20       POPC     C27      CTL2    -0.180000       12.0110           0
      2576 MEMB     20       POPC     H7R      HAL2     0.900000E-01   1.00800           0
      2577 MEMB     20       POPC     H7S      HAL2     0.900000E-01   1.00800           0
      2578 MEMB     20       POPC     C28      CTL2    -0.180000       12.0110           0
      2579 MEMB     20       POPC     H8R      HAL2     0.900000E-01   1.00800           0
      2580 MEMB     20       POPC     H8S      HAL2     0.900000E-01   1.00800           0
      2581 MEMB     20       POPC     C29      CEL1    -0.150000       12.0110           0
      2582 MEMB     20       POPC     H91      HEL1     0.150000       1.00800           0
      2583 MEMB     20       POPC     C210     CEL1    -0.150000       12.0110           0
      2584 MEMB     20       POPC     H101     HEL1     0.150000       1.00800           0
      2585 MEMB     20       POPC     C211     CTL2    -0.180000       12.0110           0
      2586 MEMB     20       POPC     H11R     HAL2     0.900000E-01   1.00800           0
      2587 MEMB     20       POPC     H11S     HAL2     0.900000E-01   1.00800           0
      2588 MEMB     20       POPC     C212     CTL2    -0.180000       12.0110           0
      2589 MEMB     20       POPC     H12R     HAL2     0.900000E-01   1.00800           0
      2590 MEMB     20       POPC     H12S     HAL2     0.900000E-01   1.00800           0
      2591 MEMB     20       POPC     C213     CTL2    -0.180000       12.0110           0
      2592 MEMB     20       POPC     H13R     HAL2     0.900000E-01   1.00800           0
      2593 MEMB     20       POPC     H13S     HAL2     0.900000E-01   1.00800           0
      2594 MEMB     20       POPC     C214     CTL2    -0.180000       12.0110           0
      2595 MEMB     20       POPC     H14R     HAL2     0.900000E-01   1.00800           0
      2596 MEMB     20       POPC     H14S     HAL2     0.900000E-01   1.00800           0
      2597 MEMB     20       POPC     C215     CTL2    -0.180000       12.0110           0
      2598 MEMB     20       POPC     H15R     HAL2     0.900000E-01   1.00800           0
      2599 MEMB     20       POPC     H15S     HAL2     0.900000E-01   1.00800           0
      2600 MEMB     20       POPC     C216     CTL2    -0.180000       12.0110           0
      2601 MEMB     20       POPC     H16R     HAL2     0.900000E-01   1.00800           0
      2602 MEMB     20       POPC     H16S     HAL2     0.900000E-01   1.00800           0
      2603 MEMB     20       POPC     C217     CTL2    -0.180000       12.0110           0
      2604 MEMB     20       POPC     H17R     HAL2     0.900000E-01   1.00800           0
      2605 MEMB     20       POPC     H17S     HAL2     0.900000E-01   1.00800           0
      2606 MEMB     20       POPC     C218     CTL3    -0.270000       12.0110           0
      2607 MEMB     20       POPC     H18R     HAL3     0.900000E-01   1.00800           0
      2608 MEMB     20       POPC     H18S     HAL3     0.900000E-01   1.00800           0
      2609 MEMB     20       POPC     H18T     HAL3     0.900000E-01   1.00800           0
      2610 MEMB     20       POPC     C33      CTL2    -0.180000       12.0110           0
      2611 MEMB     20       POPC     H3X      HAL2     0.900000E-01   1.00800           0
      2612 MEMB     20       POPC     H3Y      HAL2     0.900000E-01   1.00800           0
      2613 MEMB     20       POPC     C34      CTL2    -0.180000       12.0110           0
      2614 MEMB     20       POPC     H4X      HAL2     0.900000E-01   1.00800           0
      2615 MEMB     20       POPC     H4Y      HAL2     0.900000E-01   1.00800           0
      2616 MEMB     20       POPC     C35      CTL2    -0.180000       12.0110           0
      2617 MEMB     20       POPC     H5X      HAL2     0.900000E-01   1.00800           0
      2618 MEMB     20       POPC     H5Y      HAL2     0.900000E-01   1.00800           0
      2619 MEMB     20       POPC     C36      CTL2    -0.180000       12.0110           0
      2620 MEMB     20       POPC     H6X      HAL2     0.900000E-01   1.00800           0
      2621 MEMB     20       POPC     H6Y      HAL2     0.900000E-01   1.00800           0
      2622 MEMB     20       POPC     C37      CTL2    -0.180000       12.0110           0
      2623 MEMB     20       POPC     H7X      HAL2     0.900000E-01   1.00800           0
      2624 MEMB     20       POPC     H7Y      HAL2     0.900000E-01   1.00800           0
      2625 MEMB     20       POPC     C38      CTL2    -0.180000       12.0110           0
      2626 MEMB     20       POPC     H8X      HAL2     0.900000E-01   1.00800           0
      2627 MEMB     20       POPC     H8Y      HAL2     0.900000E-01   1.00800           0
      2628 MEMB     20       POPC     C39      CTL2    -0.180000       12.0110           0
      2629 MEMB     20       POPC     H9X      HAL2     0.900000E-01   1.00800           0
      2630 MEMB     20       POPC     H9Y      HAL2     0.900000E-01   1.00800           0
      2631 MEMB     20       POPC     C310     CTL2    -0.180000       12.0110           0
      2632 MEMB     20       POPC     H10X     HAL2     0.900000E-01   1.00800           0
      2633 MEMB     20       POPC     H10Y     HAL2     0.900000E-01   1.00800           0
      2634 MEMB     20       POPC     C311     CTL2    -0.180000       12.0110           0
      2635 MEMB     20       POPC     H11X     HAL2     0.900000E-01   1.00800           0
      2636 MEMB     20       POPC     H11Y     HAL2     0.900000E-01   1.00800           0
      2637 MEMB     20       POPC     C312     CTL2    -0.180000       12.0110           0
      2638 MEMB     20       POPC     H12X     HAL2     0.900000E-01   1.00800           0
      2639 MEMB     20       POPC     H12Y     HAL2     0.900000E-01   1.00800           0
      2640 MEMB     20       POPC     C313     CTL2    -0.180000       12.0110           0
      2641 MEMB     20       POPC     H13X     HAL2     0.900000E-01   1.00800           0
      2642 MEMB     20       POPC     H13Y     HAL2     0.900000E-01   1.00800           0
      2643 MEMB     20       POPC     C314     CTL2    -0.180000       12.0110           0
      2644 MEMB     20       POPC     H14X     HAL2     0.900000E-01   1.00800           0
      2645 MEMB     20       POPC     H14Y     HAL2     0.900000E-01   1.00800           0
      2646 MEMB     20       POPC     C315     CTL2    -0.180000       12.0110           0
      2647 MEMB     20       POPC     H15X     HAL2     0.900000E-01   1.00800           0
      2648 MEMB     20       POPC     H15Y     HAL2     0.900000E-01   1.00800           0
      2649 MEMB     20       POPC     C316     CTL3    -0.270000       12.0110           0
      2650 MEMB     20       POPC     H16X     HAL3     0.900000E-01   1.00800           0
      2651 MEMB     20       POPC     H16Y     HAL3     0.900000E-01   1.00800           0
      2652 MEMB     20       POPC     H16Z     HAL3     0.900000E-01   1.00800           0
      2653 MEMB     21       POPC     N        NTL     -0.600000       14.0070           0
      2654 MEMB     21       POPC     C12      CTL2    -0.100000       12.0110           0
      2655 MEMB     21       POPC     H12A     HL       0.250000       1.00800           0
      2656 MEMB     21       POPC     H12B     HL       0.250000       1.00800           0
      2657 MEMB     21       POPC     C13      CTL5    -0.350000       12.0110           0
      2658 MEMB     21       POPC     H13A     HL       0.250000       1.00800           0
      2659 MEMB     21       POPC     H13B     HL       0.250000       1.00800           0
      2660 MEMB     21       POPC     H13C     HL       0.250000       1.00800           0
      2661 MEMB     21       POPC     C14      CTL5    -0.350000       12.0110           0
      2662 MEMB     21       POPC     H14A     HL       0.250000       1.00800           0
      2663 MEMB     21       POPC     H14B     HL       0.250000       1.00800           0
      2664 MEMB     21       POPC     H14C     HL       0.250000       1.00800           0
      2665 MEMB     21       POPC     C15      CTL5    -0.350000       12.0110           0
      2666 MEMB     21       POPC     H15A     HL       0.250000       1.00800           0
      2667 MEMB     21       POPC     H15B     HL       0.250000       1.00800           0
      2668 MEMB     21       POPC     H15C     HL       0.250000       1.00800           0
      2669 MEMB     21       POPC     C11      CTL2    -0.800000E-01   12.0110           0
      2670 MEMB     21       POPC     H11A     HAL2     0.900000E-01   1.00800           0
      2671 MEMB     21       POPC     H11B     HAL2     0.900000E-01   1.00800           0
      2672 MEMB     21       POPC     P        PL        1.50000       30.9740           0
      2673 MEMB     21       POPC     O13      O2L     -0.780000       15.9994           0
      2674 MEMB     21       POPC     O14      O2L     -0.780000       15.9994           0
      2675 MEMB     21       POPC     O12      OSLP    -0.570000       15.9994           0
      2676 MEMB     21       POPC     O11      OSLP    -0.570000       15.9994           0
      2677 MEMB     21       POPC     C1       CTL2    -0.800000E-01   12.0110           0
      2678 MEMB     21       POPC     HA       HAL2     0.900000E-01   1.00800           0
      2679 MEMB     21       POPC     HB       HAL2     0.900000E-01   1.00800           0
      2680 MEMB     21       POPC     C2       CTL1     0.170000       12.0110           0
      2681 MEMB     21       POPC     HS       HAL1     0.900000E-01   1.00800           0
      2682 MEMB     21       POPC     O21      OSL     -0.490000       15.9994           0
      2683 MEMB     21       POPC     C21      CL       0.900000       12.0110           0
      2684 MEMB     21       POPC     O22      OBL     -0.630000       15.9994           0
      2685 MEMB     21       POPC     C22      CTL2    -0.220000       12.0110           0
      2686 MEMB     21       POPC     H2R      HAL2     0.900000E-01   1.00800           0
      2687 MEMB     21       POPC     H2S      HAL2     0.900000E-01   1.00800           0
      2688 MEMB     21       POPC     C3       CTL2     0.800000E-01   12.0110           0
      2689 MEMB     21       POPC     HX       HAL2     0.900000E-01   1.00800           0
      2690 MEMB     21       POPC     HY       HAL2     0.900000E-01   1.00800           0
      2691 MEMB     21       POPC     O31      OSL     -0.490000       15.9994           0
      2692 MEMB     21       POPC     C31      CL       0.900000       12.0110           0
      2693 MEMB     21       POPC     O32      OBL     -0.630000       15.9994           0
      2694 MEMB     21       POPC     C32      CTL2    -0.220000       12.0110           0
      2695 MEMB     21       POPC     H2X      HAL2     0.900000E-01   1.00800           0
      2696 MEMB     21       POPC     H2Y      HAL2     0.900000E-01   1.00800           0
      2697 MEMB     21       POPC     C23      CTL2    -0.180000       12.0110           0
      2698 MEMB     21       POPC     H3R      HAL2     0.900000E-01   1.00800           0
      2699 MEMB     21       POPC     H3S      HAL2     0.900000E-01   1.00800           0
      2700 MEMB     21       POPC     C24      CTL2    -0.180000       12.0110           0
      2701 MEMB     21       POPC     H4R      HAL2     0.900000E-01   1.00800           0
      2702 MEMB     21       POPC     H4S      HAL2     0.900000E-01   1.00800           0
      2703 MEMB     21       POPC     C25      CTL2    -0.180000       12.0110           0
      2704 MEMB     21       POPC     H5R      HAL2     0.900000E-01   1.00800           0
      2705 MEMB     21       POPC     H5S      HAL2     0.900000E-01   1.00800           0
      2706 MEMB     21       POPC     C26      CTL2    -0.180000       12.0110           0
      2707 MEMB     21       POPC     H6R      HAL2     0.900000E-01   1.00800           0
      2708 MEMB     21       POPC     H6S      HAL2     0.900000E-01   1.00800           0
      2709 MEMB     21       POPC     C27      CTL2    -0.180000       12.0110           0
      2710 MEMB     21       POPC     H7R      HAL2     0.900000E-01   1.00800           0
      2711 MEMB     21       POPC     H7S      HAL2     0.900000E-01   1.00800           0
      2712 MEMB     21       POPC     C28      CTL2    -0.180000       12.0110           0
      2713 MEMB     21       POPC     H8R      HAL2     0.900000E-01   1.00800           0
      2714 MEMB     21       POPC     H8S      HAL2     0.900000E-01   1.00800           0
      2715 MEMB     21       POPC     C29      CEL1    -0.150000       12.0110           0
      2716 MEMB     21       POPC     H91      HEL1     0.150000       1.00800           0
      2717 MEMB     21       POPC     C210     CEL1    -0.150000       12.0110           0
      2718 MEMB     21       POPC     H101     HEL1     0.150000       1.00800           0
      2719 MEMB     21       POPC     C211     CTL2    -0.180000       12.0110           0
      2720 MEMB     21       POPC     H11R     HAL2     0.900000E-01   1.00800           0
      2721 MEMB     21       POPC     H11S     HAL2     0.900000E-01   1.00800           0
      2722 MEMB     21       POPC     C212     CTL2    -0.180000       12.0110           0
      2723 MEMB     21       POPC     H12R     HAL2     0.900000E-01   1.00800           0
      2724 MEMB     21       POPC     H12S     HAL2     0.900000E-01   1.00800           0
      2725 MEMB     21       POPC     C213     CTL2    -0.180000       12.0110           0
      2726 MEMB     21       POPC     H13R     HAL2     0.900000E-01   1.00800           0
      2727 MEMB     21       POPC     H13S     HAL2     0.900000E-01   1.00800           0
      2728 MEMB     21       POPC     C214     CTL2    -0.180000       12.0110           0
      2729 MEMB     21       POPC     H14R     HAL2     0.900000E-01   1.00800           0
      2730 MEMB     21       POPC     H14S     HAL2     0.900000E-01   1.00800           0
      2731 MEMB     21       POPC     C215     CTL2    -0.180000       12.0110           0
      2732 MEMB     21       POPC     H15R     HAL2     0.900000E-01   1.00800           0
      2733 MEMB     21       POPC     H15S     HAL2     0.900000E-01   1.00800           0
      2734 MEMB     21       POPC     C216     CTL2    -0.180000       12.0110           0
      2735 MEMB     21       POPC     H16R     HAL2     0.900000E-01   1.00800           0
      2736 MEMB     21       POPC     H16S     HAL2     0.900000E-01   1.00800           0
      2737 MEMB     21       POPC     C217     CTL2    -0.180000       12.0110           0
      2738 MEMB     21       POPC     H17R     HAL2     0.900000E-01   1.00800           0
      2739 MEMB     21       POPC     H17S     HAL2     0.900000E-01   1.00800           0
      2740 MEMB     21       POPC     C218     CTL3    -0.270000       12.0110           0
      2741 MEMB     21       POPC     H18R     HAL3     0.900000E-01   1.00800           0
      2742 MEMB     21       POPC     H18S     HAL3     0.900000E-01   1.00800           0
      2743 MEMB     21       POPC     H18T     HAL3     0.900000E-01   1.00800           0
      2744 MEMB     21       POPC     C33      CTL2    -0.180000       12.0110           0
      2745 MEMB     21       POPC     H3X      HAL2     0.900000E-01   1.00800           0
      2746 MEMB     21       POPC     H3Y      HAL2     0.900000E-01   1.00800           0
      2747 MEMB     21       POPC     C34      CTL2    -0.180000       12.0110           0
      2748 MEMB     21       POPC     H4X      HAL2     0.900000E-01   1.00800           0
      2749 MEMB     21       POPC     H4Y      HAL2     0.900000E-01   1.00800           0
      2750 MEMB     21       POPC     C35      CTL2    -0.180000       12.0110           0
      2751 MEMB     21       POPC     H5X      HAL2     0.900000E-01   1.00800           0
      2752 MEMB     21       POPC     H5Y      HAL2     0.900000E-01   1.00800           0
      2753 MEMB     21       POPC     C36      CTL2    -0.180000       12.0110           0
      2754 MEMB     21       POPC     H6X      HAL2     0.900000E-01   1.00800           0
      2755 MEMB     21       POPC     H6Y      HAL2     0.900000E-01   1.00800           0
      2756 MEMB     21       POPC     C37      CTL2    -0.180000       12.0110           0
      2757 MEMB     21       POPC     H7X      HAL2     0.900000E-01   1.00800           0
      2758 MEMB     21       POPC     H7Y      HAL2     0.900000E-01   1.00800           0
      2759 MEMB     21       POPC     C38      CTL2    -0.180000       12.0110           0
      2760 MEMB     21       POPC     H8X      HAL2     0.900000E-01   1.00800           0
      2761 MEMB     21       POPC     H8Y      HAL2     0.900000E-01   1.00800           0
      2762 MEMB     21       POPC     C39      CTL2    -0.180000       12.0110           0
      2763 MEMB     21       POPC     H9X      HAL2     0.900000E-01   1.00800           0
      2764 MEMB     21       POPC     H9Y      HAL2     0.900000E-01   1.00800           0
      2765 MEMB     21       POPC     C310     CTL2    -0.180000       12.0110           0
      2766 MEMB     21       POPC     H10X     HAL2     0.900000E-01   1.00800           0
      2767 MEMB     21       POPC     H10Y     HAL2     0.900000E-01   1.00800           0
      2768 MEMB     21       POPC     C311     CTL2    -0.180000       12.0110           0
      2769 MEMB     21       POPC     H11X     HAL2     0.900000E-01   1.00800           0
      2770 MEMB     21       POPC     H11Y     HAL2     0.900000E-01   1.00800           0
      2771 MEMB     21       POPC     C312     CTL2    -0.180000       12.0110           0
      2772 MEMB     21       POPC     H12X     HAL2     0.900000E-01   1.00800           0
      2773 MEMB     21       POPC     H12Y     HAL2     0.900000E-01   1.00800           0
      2774 MEMB     21       POPC     C313     CTL2    -0.180000       12.0110           0
      2775 MEMB     21       POPC     H13X     HAL2     0.900000E-01   1.00800           0
      2776 MEMB     21       POPC     H13Y     HAL2     0.900000E-01   1.00800           0
      2777 MEMB     21       POPC     C314     CTL2    -0.180000       12.0110           0
      2778 MEMB     21       POPC     H14X     HAL2     0.900000E-01   1.00800           0
      2779 MEMB     21       POPC     H14Y     HAL2     0.900000E-01   1.00800           0
      2780 MEMB     21       POPC     C315     CTL2    -0.180000       12.0110           0
      2781 MEMB     21       POPC     H15X     HAL2     0.900000E-01   1.00800           0
      2782 MEMB     21       POPC     H15Y     HAL2     0.900000E-01   1.00800           0
      2783 MEMB     21       POPC     C316     CTL3    -0.270000       12.0110           0
      2784 MEMB     21       POPC     H16X     HAL3     0.900000E-01   1.00800           0
      2785 MEMB     21       POPC     H16Y     HAL3     0.900000E-01   1.00800           0
      2786 MEMB     21       POPC     H16Z     HAL3     0.900000E-01   1.00800           0
      2787 MEMB     22       POPC     N        NTL     -0.600000       14.0070           0
      2788 MEMB     22       POPC     C12      CTL2    -0.100000       12.0110           0
      2789 MEMB     22       POPC     H12A     HL       0.250000       1.00800           0
      2790 MEMB     22       POPC     H12B     HL       0.250000       1.00800           0
      2791 MEMB     22       POPC     C13      CTL5    -0.350000       12.0110           0
      2792 MEMB     22       POPC     H13A     HL       0.250000       1.00800           0
      2793 MEMB     22       POPC     H13B     HL       0.250000       1.00800           0
      2794 MEMB     22       POPC     H13C     HL       0.250000       1.00800           0
      2795 MEMB     22       POPC     C14      CTL5    -0.350000       12.0110           0
      2796 MEMB     22       POPC     H14A     HL       0.250000       1.00800           0
      2797 MEMB     22       POPC     H14B     HL       0.250000       1.00800           0
      2798 MEMB     22       POPC     H14C     HL       0.250000       1.00800           0
      2799 MEMB     22       POPC     C15      CTL5    -0.350000       12.0110           0
      2800 MEMB     22       POPC     H15A     HL       0.250000       1.00800           0
      2801 MEMB     22       POPC     H15B     HL       0.250000       1.00800           0
      2802 MEMB     22       POPC     H15C     HL       0.250000       1.00800           0
      2803 MEMB     22       POPC     C11      CTL2    -0.800000E-01   12.0110           0
      2804 MEMB     22       POPC     H11A     HAL2     0.900000E-01   1.00800           0
      2805 MEMB     22       POPC     H11B     HAL2     0.900000E-01   1.00800           0
      2806 MEMB     22       POPC     P        PL        1.50000       30.9740           0
      2807 MEMB     22       POPC     O13      O2L     -0.780000       15.9994           0
      2808 MEMB     22       POPC     O14      O2L     -0.780000       15.9994           0
      2809 MEMB     22       POPC     O12      OSLP    -0.570000       15.9994           0
      2810 MEMB     22       POPC     O11      OSLP    -0.570000       15.9994           0
      2811 MEMB     22       POPC     C1       CTL2    -0.800000E-01   12.0110           0
      2812 MEMB     22       POPC     HA       HAL2     0.900000E-01   1.00800           0
      2813 MEMB     22       POPC     HB       HAL2     0.900000E-01   1.00800           0
      2814 MEMB     22       POPC     C2       CTL1     0.170000       12.0110           0
      2815 MEMB     22       POPC     HS       HAL1     0.900000E-01   1.00800           0
      2816 MEMB     22       POPC     O21      OSL     -0.490000       15.9994           0
      2817 MEMB     22       POPC     C21      CL       0.900000       12.0110           0
      2818 MEMB     22       POPC     O22      OBL     -0.630000       15.9994           0
      2819 MEMB     22       POPC     C22      CTL2    -0.220000       12.0110           0
      2820 MEMB     22       POPC     H2R      HAL2     0.900000E-01   1.00800           0
      2821 MEMB     22       POPC     H2S      HAL2     0.900000E-01   1.00800           0
      2822 MEMB     22       POPC     C3       CTL2     0.800000E-01   12.0110           0
      2823 MEMB     22       POPC     HX       HAL2     0.900000E-01   1.00800           0
      2824 MEMB     22       POPC     HY       HAL2     0.900000E-01   1.00800           0
      2825 MEMB     22       POPC     O31      OSL     -0.490000       15.9994           0
      2826 MEMB     22       POPC     C31      CL       0.900000       12.0110           0
      2827 MEMB     22       POPC     O32      OBL     -0.630000       15.9994           0
      2828 MEMB     22       POPC     C32      CTL2    -0.220000       12.0110           0
      2829 MEMB     22       POPC     H2X      HAL2     0.900000E-01   1.00800           0
      2830 MEMB     22       POPC     H2Y      HAL2     0.900000E-01   1.00800           0
      2831 MEMB     22       POPC     C23      CTL2    -0.180000       12.0110           0
      2832 MEMB     22       POPC     H3R      HAL2     0.900000E-01   1.00800           0
      2833 MEMB     22       POPC     H3S      HAL2     0.900000E-01   1.00800           0
      2834 MEMB     22       POPC     C24      CTL2    -0.180000       12.0110           0
      2835 MEMB     22       POPC     H4R      HAL2     0.900000E-01   1.00800           0
      2836 MEMB     22       POPC     H4S      HAL2     0.900000E-01   1.00800           0
      2837 MEMB     22       POPC     C25      CTL2    -0.180000       12.0110           0
      2838 MEMB     22       POPC     H5R      HAL2     0.900000E-01   1.00800           0
      2839 MEMB     22       POPC     H5S      HAL2     0.900000E-01   1.00800           0
      2840 MEMB     22       POPC     C26      CTL2    -0.180000       12.0110           0
      2841 MEMB     22       POPC     H6R      HAL2     0.900000E-01   1.00800           0
      2842 MEMB     22       POPC     H6S      HAL2     0.900000E-01   1.00800           0
      2843 MEMB     22       POPC     C27      CTL2    -0.180000       12.0110           0
      2844 MEMB     22       POPC     H7R      HAL2     0.900000E-01   1.00800           0
      2845 MEMB     22       POPC     H7S      HAL2     0.900000E-01   1.00800           0
      2846 MEMB     22       POPC     C28      CTL2    -0.180000       12.0110           0
      2847 MEMB     22       POPC     H8R      HAL2     0.900000E-01   1.00800           0
      2848 MEMB     22       POPC     H8S      HAL2     0.900000E-01   1.00800           0
      2849 MEMB     22       POPC     C29      CEL1    -0.150000       12.0110           0
      2850 MEMB     22       POPC     H91      HEL1     0.150000       1.00800           0
      2851 MEMB     22       POPC     C210     CEL1    -0.150000       12.0110           0
      2852 MEMB     22       POPC     H101     HEL1     0.150000       1.00800           0
      2853 MEMB     22       POPC     C211     CTL2    -0.180000       12.0110           0
      2854 MEMB     22       POPC     H11R     HAL2     0.900000E-01   1.00800           0
      2855 MEMB     22       POPC     H11S     HAL2     0.900000E-01   1.00800           0
      2856 MEMB     22       POPC     C212     CTL2    -0.180000       12.0110           0
      2857 MEMB     22       POPC     H12R     HAL2     0.900000E-01   1.00800           0
      2858 MEMB     22       POPC     H12S     HAL2     0.900000E-01   1.00800           0
      2859 MEMB     22       POPC     C213     CTL2    -0.180000       12.0110           0
      2860 MEMB     22       POPC     H13R     HAL2     0.900000E-01   1.00800           0
      2861 MEMB     22       POPC     H13S     HAL2     0.900000E-01   1.00800           0
      2862 MEMB     22       POPC     C214     CTL2    -0.180000       12.0110           0
      2863 MEMB     22       POPC     H14R     HAL2     0.900000E-01   1.00800           0
      2864 MEMB     22       POPC     H14S     HAL2     0.900000E-01   1.00800           0
      2865 MEMB     22       POPC     C215     CTL2    -0.180000       12.0110           0
      2866 MEMB     22       POPC     H15R     HAL2     0.900000E-01   1.00800           0
      2867 MEMB     22       POPC     H15S     HAL2     0.900000E-01   1.00800           0
      2868 MEMB     22       POPC     C216     CTL2    -0.180000       12.0110           0
      2869 MEMB     22       POPC     H16R     HAL2     0.900000E-01   1.00800           0
      2870 MEMB     22       POPC     H16S     HAL2     0.900000E-01   1.00800           0
      2871 MEMB     22       POPC     C217     CTL2    -0.180000       12.0110           0
      2872 MEMB     22       POPC     H17R     HAL2     0.900000E-01   1.00800           0
      2873 MEMB     22       POPC     H17S     HAL2     0.900000E-01   1.00800           0
      2874 MEMB     22       POPC     C218     CTL3    -0.270000       12.0110           0
      2875 MEMB     22       POPC     H18R     HAL3     0.900000E-01   1.00800           0
      2876 MEMB     22       POPC     H18S     HAL3     0.900000E-01   1.00800           0
      2877 MEMB     22       POPC     H18T     HAL3     0.900000E-01   1.00800           0
      2878 MEMB     22       POPC     C33      CTL2    -0.180000       12.0110           0
      2879 MEMB     22       POPC     H3X      HAL2     0.900000E-01   1.00800           0
      2880 MEMB     22       POPC     H3Y      HAL2     0.900000E-01   1.00800           0
      2881 MEMB     22       POPC     C34      CTL2    -0.180000       12.0110           0
      2882 MEMB     22       POPC     H4X      HAL2     0.900000E-01   1.00800           0
      2883 MEMB     22       POPC     H4Y      HAL2     0.900000E-01   1.00800           0
      2884 MEMB     22       POPC     C35      CTL2    -0.180000       12.0110           0
      2885 MEMB     22       POPC     H5X      HAL2     0.900000E-01   1.00800           0
      2886 MEMB     22       POPC     H5Y      HAL2     0.900000E-01   1.00800           0
      2887 MEMB     22       POPC     C36      CTL2    -0.180000       12.0110           0
      2888 MEMB     22       POPC     H6X      HAL2     0.900000E-01   1.00800           0
      2889 MEMB     22       POPC     H6Y      HAL2     0.900000E-01   1.00800           0
      2890 MEMB     22       POPC     C37      CTL2    -0.180000       12.0110           0
      2891 MEMB     22       POPC     H7X      HAL2     0.900000E-01   1.00800           0
      2892 MEMB     22       POPC     H7Y      HAL2     0.900000E-01   1.00800           0
      2893 MEMB     22       POPC     C38      CTL2    -0.180000       12.0110           0
      2894 MEMB     22       POPC     H8X      HAL2     0.900000E-01   1.00800           0
      2895 MEMB     22       POPC     H8Y      HAL2     0.900000E-01   1.00800           0
      2896 MEMB     22       POPC     C39      CTL2    -0.180000       12.0110           0
      2897 MEMB     22       POPC     H9X      HAL2     0.900000E-01   1.00800           0
      2898 MEMB     22       POPC     H9Y      HAL2     0.900000E-01   1.00800           0
      2899 MEMB     22       POPC     C310     CTL2    -0.180000       12.0110           0
      2900 MEMB     22       POPC     H10X     HAL2     0.900000E-01   1.00800           0
      2901 MEMB     22       POPC     H10Y     HAL2     0.900000E-01   1.00800           0
      2902 MEMB     22       POPC     C311     CTL2    -0.180000       12.0110           0
      2903 MEMB     22       POPC     H11X     HAL2     0.900000E-01   1.00800           0
      2904 MEMB     22       POPC     H11Y     HAL2     0.900000E-01   1.00800           0
      2905 MEMB     22       POPC     C312     CTL2    -0.180000       12.0110           0
      2906 MEMB     22       POPC     H12X     HAL2     0.900000E-01   1.00800           0
      2907 MEMB     22       POPC     H12Y     HAL2     0.900000E-01   1.00800           0
      2908 MEMB     22       POPC     C313     CTL2    -0.180000       12.0110           0
      2909 MEMB     22       POPC     H13X     HAL2     0.900000E-01   1.00800           0
      2910 MEMB     22       POPC     H13Y     HAL2     0.900000E-01   1.00800           0
      2911 MEMB     22       POPC     C314     CTL2    -0.180000       12.0110           0
      2912 MEMB     22       POPC     H14X     HAL2     0.900000E-01   1.00800           0
      2913 MEMB     22       POPC     H14Y     HAL2     0.900000E-01   1.00800           0
      2914 MEMB     22       POPC     C315     CTL2    -0.180000       12.0110           0
      2915 MEMB     22       POPC     H15X     HAL2     0.900000E-01   1.00800           0
      2916 MEMB     22       POPC     H15Y     HAL2     0.900000E-01   1.00800           0
      2917 MEMB     22       POPC     C316     CTL3    -0.270000       12.0110           0
      2918 MEMB     22       POPC     H16X     HAL3     0.900000E-01   1.00800           0
      2919 MEMB     22       POPC     H16Y     HAL3     0.900000E-01   1.00800           0
      2920 MEMB     22       POPC     H16Z     HAL3     0.900000E-01   1.00800           0
      2921 MEMB     23       POPC     N        NTL     -0.600000       14.0070           0
      2922 MEMB     23       POPC     C12      CTL2    -0.100000       12.0110           0
      2923 MEMB     23       POPC     H12A     HL       0.250000       1.00800           0
      2924 MEMB     23       POPC     H12B     HL       0.250000       1.00800           0
      2925 MEMB     23       POPC     C13      CTL5    -0.350000       12.0110           0
      2926 MEMB     23       POPC     H13A     HL       0.250000       1.00800           0
      2927 MEMB     23       POPC     H13B     HL       0.250000       1.00800           0
      2928 MEMB     23       POPC     H13C     HL       0.250000       1.00800           0
      2929 MEMB     23       POPC     C14      CTL5    -0.350000       12.0110           0
      2930 MEMB     23       POPC     H14A     HL       0.250000       1.00800           0
      2931 MEMB     23       POPC     H14B     HL       0.250000       1.00800           0
      2932 MEMB     23       POPC     H14C     HL       0.250000       1.00800           0
      2933 MEMB     23       POPC     C15      CTL5    -0.350000       12.0110           0
      2934 MEMB     23       POPC     H15A     HL       0.250000       1.00800           0
      2935 MEMB     23       POPC     H15B     HL       0.250000       1.00800           0
      2936 MEMB     23       POPC     H15C     HL       0.250000       1.00800           0
      2937 MEMB     23       POPC     C11      CTL2    -0.800000E-01   12.0110           0
      2938 MEMB     23       POPC     H11A     HAL2     0.900000E-01   1.00800           0
      2939 MEMB     23       POPC     H11B     HAL2     0.900000E-01   1.00800           0
      2940 MEMB     23       POPC     P        PL        1.50000       30.9740           0
      2941 MEMB     23       POPC     O13      O2L     -0.780000       15.9994           0
      2942 MEMB     23       POPC     O14      O2L     -0.780000       15.9994           0
      2943 MEMB     23       POPC     O12      OSLP    -0.570000       15.9994           0
      2944 MEMB     23       POPC     O11      OSLP    -0.570000       15.9994           0
      2945 MEMB     23       POPC     C1       CTL2    -0.800000E-01   12.0110           0
      2946 MEMB     23       POPC     HA       HAL2     0.900000E-01   1.00800           0
      2947 MEMB     23       POPC     HB       HAL2     0.900000E-01   1.00800           0
      2948 MEMB     23       POPC     C2       CTL1     0.170000       12.0110           0
      2949 MEMB     23       POPC     HS       HAL1     0.900000E-01   1.00800           0
      2950 MEMB     23       POPC     O21      OSL     -0.490000       15.9994           0
      2951 MEMB     23       POPC     C21      CL       0.900000       12.0110           0
      2952 MEMB     23       POPC     O22      OBL     -0.630000       15.9994           0
      2953 MEMB     23       POPC     C22      CTL2    -0.220000       12.0110           0
      2954 MEMB     23       POPC     H2R      HAL2     0.900000E-01   1.00800           0
      2955 MEMB     23       POPC     H2S      HAL2     0.900000E-01   1.00800           0
      2956 MEMB     23       POPC     C3       CTL2     0.800000E-01   12.0110           0
      2957 MEMB     23       POPC     HX       HAL2     0.900000E-01   1.00800           0
      2958 MEMB     23       POPC     HY       HAL2     0.900000E-01   1.00800           0
      2959 MEMB     23       POPC     O31      OSL     -0.490000       15.9994           0
      2960 MEMB     23       POPC     C31      CL       0.900000       12.0110           0
      2961 MEMB     23       POPC     O32      OBL     -0.630000       15.9994           0
      2962 MEMB     23       POPC     C32      CTL2    -0.220000       12.0110           0
      2963 MEMB     23       POPC     H2X      HAL2     0.900000E-01   1.00800           0
      2964 MEMB     23       POPC     H2Y      HAL2     0.900000E-01   1.00800           0
      2965 MEMB     23       POPC     C23      CTL2    -0.180000       12.0110           0
      2966 MEMB     23       POPC     H3R      HAL2     0.900000E-01   1.00800           0
      2967 MEMB     23       POPC     H3S      HAL2     0.900000E-01   1.00800           0
      2968 MEMB     23       POPC     C24      CTL2    -0.180000       12.0110           0
      2969 MEMB     23       POPC     H4R      HAL2     0.900000E-01   1.00800           0
      2970 MEMB     23       POPC     H4S      HAL2     0.900000E-01   1.00800           0
      2971 MEMB     23       POPC     C25      CTL2    -0.180000       12.0110           0
      2972 MEMB     23       POPC     H5R      HAL2     0.900000E-01   1.00800           0
      2973 MEMB     23       POPC     H5S      HAL2     0.900000E-01   1.00800           0
      2974 MEMB     23       POPC     C26      CTL2    -0.180000       12.0110           0
      2975 MEMB     23       POPC     H6R      HAL2     0.900000E-01   1.00800           0
      2976 MEMB     23       POPC     H6S      HAL2     0.900000E-01   1.00800           0
      2977 MEMB     23       POPC     C27      CTL2    -0.180000       12.0110           0
      2978 MEMB     23       POPC     H7R      HAL2     0.900000E-01   1.00800           0
      2979 MEMB     23       POPC     H7S      HAL2     0.900000E-01   1.00800           0
      2980 MEMB     23       POPC     C28      CTL2    -0.180000       12.0110           0
      2981 MEMB     23       POPC     H8R      HAL2     0.900000E-01   1.00800           0
      2982 MEMB     23       POPC     H8S      HAL2     0.900000E-01   1.00800           0
      2983 MEMB     23       POPC     C29      CEL1    -0.150000       12.0110           0
      2984 MEMB     23       POPC     H91      HEL1     0.150000       1.00800           0
      2985 MEMB     23       POPC     C210     CEL1    -0.150000       12.0110           0
      2986 MEMB     23       POPC     H101     HEL1     0.150000       1.00800           0
      2987 MEMB     23       POPC     C211     CTL2    -0.180000       12.0110           0
      2988 MEMB     23       POPC     H11R     HAL2     0.900000E-01   1.00800           0
      2989 MEMB     23       POPC     H11S     HAL2     0.900000E-01   1.00800           0
      2990 MEMB     23       POPC     C212     CTL2    -0.180000       12.0110           0
      2991 MEMB     23       POPC     H12R     HAL2     0.900000E-01   1.00800           0
      2992 MEMB     23       POPC     H12S     HAL2     0.900000E-01   1.00800           0
      2993 MEMB     23       POPC     C213     CTL2    -0.180000       12.0110           0
      2994 MEMB     23       POPC     H13R     HAL2     0.900000E-01   1.00800           0
      2995 MEMB     23       POPC     H13S     HAL2     0.900000E-01   1.00800           0
      2996 MEMB     23       POPC     C214     CTL2    -0.180000       12.0110           0
      2997 MEMB     23       POPC     H14R     HAL2     0.900000E-01   1.00800           0
      2998 MEMB     23       POPC     H14S     HAL2     0.900000E-01   1.00800           0
      2999 MEMB     23       POPC     C215     CTL2    -0.180000       12.0110           0
      3000 MEMB     23       POPC     H15R     HAL2     0.900000E-01   1.00800           0
      3001 MEMB     23       POPC     H15S     HAL2     0.900000E-01   1.00800           0
      3002 MEMB     23       POPC     C216     CTL2    -0.180000       12.0110           0
      3003 MEMB     23       POPC     H16R     HAL2     0.900000E-01   1.00800           0
      3004 MEMB     23       POPC     H16S     HAL2     0.900000E-01   1.00800           0
      3005 MEMB     23       POPC     C217     CTL2    -0.180000       12.0110           0
      3006 MEMB     23       POPC     H17R     HAL2     0.900000E-01   1.00800           0
      3007 MEMB     23       POPC     H17S     HAL2     0.900000E-01   1.00800           0
      3008 MEMB     23       POPC     C218     CTL3    -0.270000       12.0110           0
      3009 MEMB     23       POPC     H18R     HAL3     0.900000E-01   1.00800           0
      3010 MEMB     23       POPC     H18S     HAL3     0.900000E-01   1.00800           0
      3011 MEMB     23       POPC     H18T     HAL3     0.900000E-01   1.00800           0
      3012 MEMB     23       POPC     C33      CTL2    -0.180000       12.0110           0
      3013 MEMB     23       POPC     H3X      HAL2     0.900000E-01   1.00800           0
      3014 MEMB     23       POPC     H3Y      HAL2     0.900000E-01   1.00800           0
      3015 MEMB     23       POPC     C34      CTL2    -0.180000       12.0110           0
      3016 MEMB     23       POPC     H4X      HAL2     0.900000E-01   1.00800           0
      3017 MEMB     23       POPC     H4Y      HAL2     0.900000E-01   1.00800           0
      3018 MEMB     23       POPC     C35      CTL2    -0.180000       12.0110           0
      3019 MEMB     23       POPC     H5X      HAL2     0.900000E-01   1.00800           0
      3020 MEMB     23       POPC     H5Y      HAL2     0.900000E-01   1.00800           0
      3021 MEMB     23       POPC     C36      CTL2    -0.180000       12.0110           0
      3022 MEMB     23       POPC     H6X      HAL2     0.900000E-01   1.00800           0
      3023 MEMB     23       POPC     H6Y      HAL2     0.900000E-01   1.00800           0
      3024 MEMB     23       POPC     C37      CTL2    -0.180000       12.0110           0
      3025 MEMB     23       POPC     H7X      HAL2     0.900000E-01   1.00800           0
      3026 MEMB     23       POPC     H7Y      HAL2     0.900000E-01   1.00800           0
      3027 MEMB     23       POPC     C38      CTL2    -0.180000       12.0110           0
      3028 MEMB     23       POPC     H8X      HAL2     0.900000E-01   1.00800           0
      3029 MEMB     23       POPC     H8Y      HAL2     0.900000E-01   1.00800           0
      3030 MEMB     23       POPC     C39      CTL2    -0.180000       12.0110           0
      3031 MEMB     23       POPC     H9X      HAL2     0.900000E-01   1.00800           0
      3032 MEMB     23       POPC     H9Y      HAL2     0.900000E-01   1.00800           0
      3033 MEMB     23       POPC     C310     CTL2    -0.180000       12.0110           0
      3034 MEMB     23       POPC     H10X     HAL2     0.900000E-01   1.00800           0
      3035 MEMB     23       POPC     H10Y     HAL2     0.900000E-01   1.00800           0
      3036 MEMB     23       POPC     C311     CTL2    -0.180000       12.0110           0
      3037 MEMB     23       POPC     H11X     HAL2     0.900000E-01   1.00800           0
      3038 MEMB     23       POPC     H11Y     HAL2     0.900000E-01   1.00800           0
      3039 MEMB     23       POPC     C312     CTL2    -0.180000       12.0110           0
      3040 MEMB     23       POPC     H12X     HAL2     0.900000E-01   1.00800           0
      3041 MEMB     23       POPC     H12Y     HAL2     0.900000E-01   1.00800           0
      3042 MEMB     23       POPC     C313     CTL2    -0.180000       12.0110           0
      3043 MEMB     23       POPC     H13X     HAL2     0.900000E-01   1.00800           0
      3044 MEMB     23       POPC     H13Y     HAL2     0.900000E-01   1.00800           0
      3045 MEMB     23       POPC     C314     CTL2    -0.180000       12.0110           0
      3046 MEMB     23       POPC     H14X     HAL2     0.900000E-01   1.00800           0
      3047 MEMB     23       POPC     H14Y     HAL2     0.900000E-01   1.00800           0
      3048 MEMB     23       POPC     C315     CTL2    -0.180000       12.0110           0
      3049 MEMB     23       POPC     H15X     HAL2     0.900000E-01   1.00800           0
      3050 MEMB     23       POPC     H15Y     HAL2     0.900000E-01   1.00800           0
      3051 MEMB     23       POPC     C316     CTL3    -0.270000       12.0110           0
      3052 MEMB     23       POPC     H16X     HAL3     0.900000E-01   1.00800           0
      3053 MEMB     23       POPC     H16Y     HAL3     0.900000E-01   1.00800           0
      3054 MEMB     23       POPC     H16Z     HAL3     0.900000E-01   1.00800           0
      3055 MEMB     24       POPC     N        NTL     -0.600000       14.0070           0
      3056 MEMB     24       POPC     C12      CTL2    -0.100000       12.0110           0
      3057 MEMB     24       POPC     H12A     HL       0.250000       1.00800           0
      3058 MEMB     24       POPC     H12B     HL       0.250000       1.00800           0
      3059 MEMB     24       POPC     C13      CTL5    -0.350000       12.0110           0
      3060 MEMB     24       POPC     H13A     HL       0.250000       1.00800           0
      3061 MEMB     24       POPC     H13B     HL       0.250000       1.00800           0
      3062 MEMB     24       POPC     H13C     HL       0.250000       1.00800           0
      3063 MEMB     24       POPC     C14      CTL5    -0.350000       12.0110           0
      3064 MEMB     24       POPC     H14A     HL       0.250000       1.00800           0
      3065 MEMB     24       POPC     H14B     HL       0.250000       1.00800           0
      3066 MEMB     24       POPC     H14C     HL       0.250000       1.00800           0
      3067 MEMB     24       POPC     C15      CTL5    -0.350000       12.0110           0
      3068 MEMB     24       POPC     H15A     HL       0.250000       1.00800           0
      3069 MEMB     24       POPC     H15B     HL       0.250000       1.00800           0
      3070 MEMB     24       POPC     H15C     HL       0.250000       1.00800           0
      3071 MEMB     24       POPC     C11      CTL2    -0.800000E-01   12.0110           0
      3072 MEMB     24       POPC     H11A     HAL2     0.900000E-01   1.00800           0
      3073 MEMB     24       POPC     H11B     HAL2     0.900000E-01   1.00800           0
      3074 MEMB     24       POPC     P        PL        1.50000       30.9740           0
      3075 MEMB     24       POPC     O13      O2L     -0.780000       15.9994           0
      3076 MEMB     24       POPC     O14      O2L     -0.780000       15.9994           0
      3077 MEMB     24       POPC     O12      OSLP    -0.570000       15.9994           0
      3078 MEMB     24       POPC     O11      OSLP    -0.570000       15.9994           0
      3079 MEMB     24       POPC     C1       CTL2    -0.800000E-01   12.0110           0
      3080 MEMB     24       POPC     HA       HAL2     0.900000E-01   1.00800           0
      3081 MEMB     24       POPC     HB       HAL2     0.900000E-01   1.00800           0
      3082 MEMB     24       POPC     C2       CTL1     0.170000       12.0110           0
      3083 MEMB     24       POPC     HS       HAL1     0.900000E-01   1.00800           0
      3084 MEMB     24       POPC     O21      OSL     -0.490000       15.9994           0
      3085 MEMB     24       POPC     C21      CL       0.900000       12.0110           0
      3086 MEMB     24       POPC     O22      OBL     -0.630000       15.9994           0
      3087 MEMB     24       POPC     C22      CTL2    -0.220000       12.0110           0
      3088 MEMB     24       POPC     H2R      HAL2     0.900000E-01   1.00800           0
      3089 MEMB     24       POPC     H2S      HAL2     0.900000E-01   1.00800           0
      3090 MEMB     24       POPC     C3       CTL2     0.800000E-01   12.0110           0
      3091 MEMB     24       POPC     HX       HAL2     0.900000E-01   1.00800           0
      3092 MEMB     24       POPC     HY       HAL2     0.900000E-01   1.00800           0
      3093 MEMB     24       POPC     O31      OSL     -0.490000       15.9994           0
      3094 MEMB     24       POPC     C31      CL       0.900000       12.0110           0
      3095 MEMB     24       POPC     O32      OBL     -0.630000       15.9994           0
      3096 MEMB     24       POPC     C32      CTL2    -0.220000       12.0110           0
      3097 MEMB     24       POPC     H2X      HAL2     0.900000E-01   1.00800           0
      3098 MEMB     24       POPC     H2Y      HAL2     0.900000E-01   1.00800           0
      3099 MEMB     24       POPC     C23      CTL2    -0.180000       12.0110           0
      3100 MEMB     24       POPC     H3R      HAL2     0.900000E-01   1.00800           0
      3101 MEMB     24       POPC     H3S      HAL2     0.900000E-01   1.00800           0
      3102 MEMB     24       POPC     C24      CTL2    -0.180000       12.0110           0
      3103 MEMB     24       POPC     H4R      HAL2     0.900000E-01   1.00800           0
      3104 MEMB     24       POPC     H4S      HAL2     0.900000E-01   1.00800           0
      3105 MEMB     24       POPC     C25      CTL2    -0.180000       12.0110           0
      3106 MEMB     24       POPC     H5R      HAL2     0.900000E-01   1.00800           0
      3107 MEMB     24       POPC     H5S      HAL2     0.900000E-01   1.00800           0
      3108 MEMB     24       POPC     C26      CTL2    -0.180000       12.0110           0
      3109 MEMB     24       POPC     H6R      HAL2     0.900000E-01   1.00800           0
      3110 MEMB     24       POPC     H6S      HAL2     0.900000E-01   1.00800           0
      3111 MEMB     24       POPC     C27      CTL2    -0.180000       12.0110           0
      3112 MEMB     24       POPC     H7R      HAL2     0.900000E-01   1.00800           0
      3113 MEMB     24       POPC     H7S      HAL2     0.900000E-01   1.00800           0
      3114 MEMB     24       POPC     C28      CTL2    -0.180000       12.0110           0
      3115 MEMB     24       POPC     H8R      HAL2     0.900000E-01   1.00800           0
      3116 MEMB     24       POPC     H8S      HAL2     0.900000E-01   1.00800           0
      3117 MEMB     24       POPC     C29      CEL1    -0.150000       12.0110           0
      3118 MEMB     24       POPC     H91      HEL1     0.150000       1.00800           0
      3119 MEMB     24       POPC     C210     CEL1    -0.150000       12.0110           0
      3120 MEMB     24       POPC     H101     HEL1     0.150000       1.00800           0
      3121 MEMB     24       POPC     C211     CTL2    -0.180000       12.0110           0
      3122 MEMB     24       POPC     H11R     HAL2     0.900000E-01   1.00800           0
      3123 MEMB     24       POPC     H11S     HAL2     0.900000E-01   1.00800           0
      3124 MEMB     24       POPC     C212     CTL2    -0.180000       12.0110           0
      3125 MEMB     24       POPC     H12R     HAL2     0.900000E-01   1.00800           0
      3126 MEMB     24       POPC     H12S     HAL2     0.900000E-01   1.00800           0
      3127 MEMB     24       POPC     C213     CTL2    -0.180000       12.0110           0
      3128 MEMB     24       POPC     H13R     HAL2     0.900000E-01   1.00800           0
      3129 MEMB     24       POPC     H13S     HAL2     0.900000E-01   1.00800           0
      3130 MEMB     24       POPC     C214     CTL2    -0.180000       12.0110           0
      3131 MEMB     24       POPC     H14R     HAL2     0.900000E-01   1.00800           0
      3132 MEMB     24       POPC     H14S     HAL2     0.900000E-01   1.00800           0
      3133 MEMB     24       POPC     C215     CTL2    -0.180000       12.0110           0
      3134 MEMB     24       POPC     H15R     HAL2     0.900000E-01   1.00800           0
      3135 MEMB     24       POPC     H15S     HAL2     0.900000E-01   1.00800           0
      3136 MEMB     24       POPC     C216     CTL2    -0.180000       12.0110           0
      3137 MEMB     24       POPC     H16R     HAL2     0.900000E-01   1.00800           0
      3138 MEMB     24       POPC     H16S     HAL2     0.900000E-01   1.00800           0
      3139 MEMB     24       POPC     C217     CTL2    -0.180000       12.0110           0
      3140 MEMB     24       POPC     H17R     HAL2     0.900000E-01   1.00800           0
      3141 MEMB     24       POPC     H17S     HAL2     0.900000E-01   1.00800           0
      3142 MEMB     24       POPC     C218     CTL3    -0.270000       12.0110           0
      3143 MEMB     24       POPC     H18R     HAL3     0.900000E-01   1.00800           0
      3144 MEMB     24       POPC     H18S     HAL3     0.900000E-01   1.00800           0
      3145 MEMB     24       POPC     H18T     HAL3     0.900000E-01   1.00800           0
      3146 MEMB     24       POPC     C33      CTL2    -0.180000       12.0110           0
      3147 MEMB     24       POPC     H3X      HAL2     0.900000E-01   1.00800           0
      3148 MEMB     24       POPC     H3Y      HAL2     0.900000E-01   1.00800           0
      3149 MEMB     24       POPC     C34      CTL2    -0.180000       12.0110           0
      3150 MEMB     24       POPC     H4X      HAL2     0.900000E-01   1.00800           0
      3151 MEMB     24       POPC     H4Y      HAL2     0.900000E-01   1.00800           0
      3152 MEMB     24       POPC     C35      CTL2    -0.180000       12.0110           0
      3153 MEMB     24       POPC     H5X      HAL2     0.900000E-01   1.00800           0
      3154 MEMB     24       POPC     H5Y      HAL2     0.900000E-01   1.00800           0
      3155 MEMB     24       POPC     C36      CTL2    -0.180000       12.0110           0
      3156 MEMB     24       POPC     H6X      HAL2     0.900000E-01   1.00800           0
      3157 MEMB     24       POPC     H6Y      HAL2     0.900000E-01   1.00800           0
      3158 MEMB     24       POPC     C37      CTL2    -0.180000       12.0110           0
      3159 MEMB     24       POPC     H7X      HAL2     0.900000E-01   1.00800           0
      3160 MEMB     24       POPC     H7Y      HAL2     0.900000E-01   1.00800           0
      3161 MEMB     24       POPC     C38      CTL2    -0.180000       12.0110           0
      3162 MEMB     24       POPC     H8X      HAL2     0.900000E-01   1.00800           0
      3163 MEMB     24       POPC     H8Y      HAL2     0.900000E-01   1.00800           0
      3164 MEMB     24       POPC     C39      CTL2    -0.180000       12.0110           0
      3165 MEMB     24       POPC     H9X      HAL2     0.900000E-01   1.00800           0
      3166 MEMB     24       POPC     H9Y      HAL2     0.900000E-01   1.00800           0
      3167 MEMB     24       POPC     C310     CTL2    -0.180000       12.0110           0
      3168 MEMB     24       POPC     H10X     HAL2     0.900000E-01   1.00800           0
      3169 MEMB     24       POPC     H10Y     HAL2     0.900000E-01   1.00800           0
      3170 MEMB     24       POPC     C311     CTL2    -0.180000       12.0110           0
      3171 MEMB     24       POPC     H11X     HAL2     0.900000E-01   1.00800           0
      3172 MEMB     24       POPC     H11Y     HAL2     0.900000E-01   1.00800           0
      3173 MEMB     24       POPC     C312     CTL2    -0.180000       12.0110           0
      3174 MEMB     24       POPC     H12X     HAL2     0.900000E-01   1.00800           0
      3175 MEMB     24       POPC     H12Y     HAL2     0.900000E-01   1.00800           0
      3176 MEMB     24       POPC     C313     CTL2    -0.180000       12.0110           0
      3177 MEMB     24       POPC     H13X     HAL2     0.900000E-01   1.00800           0
      3178 MEMB     24       POPC     H13Y     HAL2     0.900000E-01   1.00800           0
      3179 MEMB     24       POPC     C314     CTL2    -0.180000       12.0110           0
      3180 MEMB     24       POPC     H14X     HAL2     0.900000E-01   1.00800           0
      3181 MEMB     24       POPC     H14Y     HAL2     0.900000E-01   1.00800           0
      3182 MEMB     24       POPC     C315     CTL2    -0.180000       12.0110           0
      3183 MEMB     24       POPC     H15X     HAL2     0.900000E-01   1.00800           0
      3184 MEMB     24       POPC     H15Y     HAL2     0.900000E-01   1.00800           0
      3185 MEMB     24       POPC     C316     CTL3    -0.270000       12.0110           0
      3186 MEMB     24       POPC     H16X     HAL3     0.900000E-01   1.00800           0
      3187 MEMB     24       POPC     H16Y     HAL3     0.900000E-01   1.00800           0
      3188 MEMB     24       POPC     H16Z     HAL3     0.900000E-01   1.00800           0
      3189 MEMB     25       POPS     N        NH3L    -0.300000       14.0070           0
      3190 MEMB     25       POPS     HN1      HCL      0.330000       1.00800           0
      3191 MEMB     25       POPS     HN2      HCL      0.330000       1.00800           0
      3192 MEMB     25       POPS     HN3      HCL      0.330000       1.00800           0
      3193 MEMB     25       POPS     C12      CTL1     0.210000       12.0110           0
      3194 MEMB     25       POPS     H12A     HBL      0.100000       1.00800           0
      3195 MEMB     25       POPS     C13      CCL      0.340000       12.0110           0
      3196 MEMB     25       POPS     O13A     OCL     -0.670000       15.9994           0
      3197 MEMB     25       POPS     O13B     OCL     -0.670000       15.9994           0
      3198 MEMB     25       POPS     C11      CTL2    -0.800000E-01   12.0110           0
      3199 MEMB     25       POPS     H11A     HAL2     0.900000E-01   1.00800           0
      3200 MEMB     25       POPS     H11B     HAL2     0.900000E-01   1.00800           0
      3201 MEMB     25       POPS     P        PL        1.50000       30.9740           0
      3202 MEMB     25       POPS     O13      O2L     -0.780000       15.9994           0
      3203 MEMB     25       POPS     O14      O2L     -0.780000       15.9994           0
      3204 MEMB     25       POPS     O12      OSLP    -0.570000       15.9994           0
      3205 MEMB     25       POPS     O11      OSLP    -0.570000       15.9994           0
      3206 MEMB     25       POPS     C1       CTL2    -0.800000E-01   12.0110           0
      3207 MEMB     25       POPS     HA       HAL2     0.900000E-01   1.00800           0
      3208 MEMB     25       POPS     HB       HAL2     0.900000E-01   1.00800           0
      3209 MEMB     25       POPS     C2       CTL1     0.170000       12.0110           0
      3210 MEMB     25       POPS     HS       HAL1     0.900000E-01   1.00800           0
      3211 MEMB     25       POPS     O21      OSL     -0.490000       15.9994           0
      3212 MEMB     25       POPS     C21      CL       0.900000       12.0110           0
      3213 MEMB     25       POPS     O22      OBL     -0.630000       15.9994           0
      3214 MEMB     25       POPS     C22      CTL2    -0.220000       12.0110           0
      3215 MEMB     25       POPS     H2R      HAL2     0.900000E-01   1.00800           0
      3216 MEMB     25       POPS     H2S      HAL2     0.900000E-01   1.00800           0
      3217 MEMB     25       POPS     C3       CTL2     0.800000E-01   12.0110           0
      3218 MEMB     25       POPS     HX       HAL2     0.900000E-01   1.00800           0
      3219 MEMB     25       POPS     HY       HAL2     0.900000E-01   1.00800           0
      3220 MEMB     25       POPS     O31      OSL     -0.490000       15.9994           0
      3221 MEMB     25       POPS     C31      CL       0.900000       12.0110           0
      3222 MEMB     25       POPS     O32      OBL     -0.630000       15.9994           0
      3223 MEMB     25       POPS     C32      CTL2    -0.220000       12.0110           0
      3224 MEMB     25       POPS     H2X      HAL2     0.900000E-01   1.00800           0
      3225 MEMB     25       POPS     H2Y      HAL2     0.900000E-01   1.00800           0
      3226 MEMB     25       POPS     C23      CTL2    -0.180000       12.0110           0
      3227 MEMB     25       POPS     H3R      HAL2     0.900000E-01   1.00800           0
      3228 MEMB     25       POPS     H3S      HAL2     0.900000E-01   1.00800           0
      3229 MEMB     25       POPS     C24      CTL2    -0.180000       12.0110           0
      3230 MEMB     25       POPS     H4R      HAL2     0.900000E-01   1.00800           0
      3231 MEMB     25       POPS     H4S      HAL2     0.900000E-01   1.00800           0
      3232 MEMB     25       POPS     C25      CTL2    -0.180000       12.0110           0
      3233 MEMB     25       POPS     H5R      HAL2     0.900000E-01   1.00800           0
      3234 MEMB     25       POPS     H5S      HAL2     0.900000E-01   1.00800           0
      3235 MEMB     25       POPS     C26      CTL2    -0.180000       12.0110           0
      3236 MEMB     25       POPS     H6R      HAL2     0.900000E-01   1.00800           0
      3237 MEMB     25       POPS     H6S      HAL2     0.900000E-01   1.00800           0
      3238 MEMB     25       POPS     C27      CTL2    -0.180000       12.0110           0
      3239 MEMB     25       POPS     H7R      HAL2     0.900000E-01   1.00800           0
      3240 MEMB     25       POPS     H7S      HAL2     0.900000E-01   1.00800           0
      3241 MEMB     25       POPS     C28      CTL2    -0.180000       12.0110           0
      3242 MEMB     25       POPS     H8R      HAL2     0.900000E-01   1.00800           0
      3243 MEMB     25       POPS     H8S      HAL2     0.900000E-01   1.00800           0
      3244 MEMB     25       POPS     C29      CEL1    -0.150000       12.0110           0
      3245 MEMB     25       POPS     H91      HEL1     0.150000       1.00800           0
      3246 MEMB     25       POPS     C210     CEL1    -0.150000       12.0110           0
      3247 MEMB     25       POPS     H101     HEL1     0.150000       1.00800           0
      3248 MEMB     25       POPS     C211     CTL2    -0.180000       12.0110           0
      3249 MEMB     25       POPS     H11R     HAL2     0.900000E-01   1.00800           0
      3250 MEMB     25       POPS     H11S     HAL2     0.900000E-01   1.00800           0
      3251 MEMB     25       POPS     C212     CTL2    -0.180000       12.0110           0
      3252 MEMB     25       POPS     H12R     HAL2     0.900000E-01   1.00800           0
      3253 MEMB     25       POPS     H12S     HAL2     0.900000E-01   1.00800           0
      3254 MEMB     25       POPS     C213     CTL2    -0.180000       12.0110           0
      3255 MEMB     25       POPS     H13R     HAL2     0.900000E-01   1.00800           0
      3256 MEMB     25       POPS     H13S     HAL2     0.900000E-01   1.00800           0
      3257 MEMB     25       POPS     C214     CTL2    -0.180000       12.0110           0
      3258 MEMB     25       POPS     H14R     HAL2     0.900000E-01   1.00800           0
      3259 MEMB     25       POPS     H14S     HAL2     0.900000E-01   1.00800           0
      3260 MEMB     25       POPS     C215     CTL2    -0.180000       12.0110           0
      3261 MEMB     25       POPS     H15R     HAL2     0.900000E-01   1.00800           0
      3262 MEMB     25       POPS     H15S     HAL2     0.900000E-01   1.00800           0
      3263 MEMB     25       POPS     C216     CTL2    -0.180000       12.0110           0
      3264 MEMB     25       POPS     H16R     HAL2     0.900000E-01   1.00800           0
      3265 MEMB     25       POPS     H16S     HAL2     0.900000E-01   1.00800           0
      3266 MEMB     25       POPS     C217     CTL2    -0.180000       12.0110           0
      3267 MEMB     25       POPS     H17R     HAL2     0.900000E-01   1.00800           0
      3268 MEMB     25       POPS     H17S     HAL2     0.900000E-01   1.00800           0
      3269 MEMB     25       POPS     C218     CTL3    -0.270000       12.0110           0
      3270 MEMB     25       POPS     H18R     HAL3     0.900000E-01   1.00800           0
      3271 MEMB     25       POPS     H18S     HAL3     0.900000E-01   1.00800           0
      3272 MEMB     25       POPS     H18T     HAL3     0.900000E-01   1.00800           0
      3273 MEMB     25       POPS     C33      CTL2    -0.180000       12.0110           0
      3274 MEMB     25       POPS     H3X      HAL2     0.900000E-01   1.00800           0
      3275 MEMB     25       POPS     H3Y      HAL2     0.900000E-01   1.00800           0
      3276 MEMB     25       POPS     C34      CTL2    -0.180000       12.0110           0
      3277 MEMB     25       POPS     H4X      HAL2     0.900000E-01   1.00800           0
      3278 MEMB     25       POPS     H4Y      HAL2     0.900000E-01   1.00800           0
      3279 MEMB     25       POPS     C35      CTL2    -0.180000       12.0110           0
      3280 MEMB     25       POPS     H5X      HAL2     0.900000E-01   1.00800           0
      3281 MEMB     25       POPS     H5Y      HAL2     0.900000E-01   1.00800           0
      3282 MEMB     25       POPS     C36      CTL2    -0.180000       12.0110           0
      3283 MEMB     25       POPS     H6X      HAL2     0.900000E-01   1.00800           0
      3284 MEMB     25       POPS     H6Y      HAL2     0.900000E-01   1.00800           0
      3285 MEMB     25       POPS     C37      CTL2    -0.180000       12.0110           0
      3286 MEMB     25       POPS     H7X      HAL2     0.900000E-01   1.00800           0
      3287 MEMB     25       POPS     H7Y      HAL2     0.900000E-01   1.00800           0
      3288 MEMB     25       POPS     C38      CTL2    -0.180000       12.0110           0
      3289 MEMB     25       POPS     H8X      HAL2     0.900000E-01   1.00800           0
      3290 MEMB     25       POPS     H8Y      HAL2     0.900000E-01   1.00800           0
      3291 MEMB     25       POPS     C39      CTL2    -0.180000       12.0110           0
      3292 MEMB     25       POPS     H9X      HAL2     0.900000E-01   1.00800           0
      3293 MEMB     25       POPS     H9Y      HAL2     0.900000E-01   1.00800           0
      3294 MEMB     25       POPS     C310     CTL2    -0.180000       12.0110           0
      3295 MEMB     25       POPS     H10X     HAL2     0.900000E-01   1.00800           0
      3296 MEMB     25       POPS     H10Y     HAL2     0.900000E-01   1.00800           0
      3297 MEMB     25       POPS     C311     CTL2    -0.180000       12.0110           0
      3298 MEMB     25       POPS     H11X     HAL2     0.900000E-01   1.00800           0
      3299 MEMB     25       POPS     H11Y     HAL2     0.900000E-01   1.00800           0
      3300 MEMB     25       POPS     C312     CTL2    -0.180000       12.0110           0
      3301 MEMB     25       POPS     H12X     HAL2     0.900000E-01   1.00800           0
      3302 MEMB     25       POPS     H12Y     HAL2     0.900000E-01   1.00800           0
      3303 MEMB     25       POPS     C313     CTL2    -0.180000       12.0110           0
      3304 MEMB     25       POPS     H13X     HAL2     0.900000E-01   1.00800           0
      3305 MEMB     25       POPS     H13Y     HAL2     0.900000E-01   1.00800           0
      3306 MEMB     25       POPS     C314     CTL2    -0.180000       12.0110           0
      3307 MEMB     25       POPS     H14X     HAL2     0.900000E-01   1.00800           0
      3308 MEMB     25       POPS     H14Y     HAL2     0.900000E-01   1.00800           0
      3309 MEMB     25       POPS     C315     CTL2    -0.180000       12.0110           0
      3310 MEMB     25       POPS     H15X     HAL2     0.900000E-01   1.00800           0
      3311 MEMB     25       POPS     H15Y     HAL2     0.900000E-01   1.00800           0
      3312 MEMB     25       POPS     C316     CTL3    -0.270000       12.0110           0
      3313 MEMB     25       POPS     H16X     HAL3     0.900000E-01   1.00800           0
      3314 MEMB     25       POPS     H16Y     HAL3     0.900000E-01   1.00800           0
      3315 MEMB     25       POPS     H16Z     HAL3     0.900000E-01   1.00800           0
      3316 MEMB     26       POPC     N        NTL     -0.600000       14.0070           0
      3317 MEMB     26       POPC     C12      CTL2    -0.100000       12.0110           0
      3318 MEMB     26       POPC     H12A     HL       0.250000       1.00800           0
      3319 MEMB     26       POPC     H12B     HL       0.250000       1.00800           0
      3320 MEMB     26       POPC     C13      CTL5    -0.350000       12.0110           0
      3321 MEMB     26       POPC     H13A     HL       0.250000       1.00800           0
      3322 MEMB     26       POPC     H13B     HL       0.250000       1.00800           0
      3323 MEMB     26       POPC     H13C     HL       0.250000       1.00800           0
      3324 MEMB     26       POPC     C14      CTL5    -0.350000       12.0110           0
      3325 MEMB     26       POPC     H14A     HL       0.250000       1.00800           0
      3326 MEMB     26       POPC     H14B     HL       0.250000       1.00800           0
      3327 MEMB     26       POPC     H14C     HL       0.250000       1.00800           0
      3328 MEMB     26       POPC     C15      CTL5    -0.350000       12.0110           0
      3329 MEMB     26       POPC     H15A     HL       0.250000       1.00800           0
      3330 MEMB     26       POPC     H15B     HL       0.250000       1.00800           0
      3331 MEMB     26       POPC     H15C     HL       0.250000       1.00800           0
      3332 MEMB     26       POPC     C11      CTL2    -0.800000E-01   12.0110           0
      3333 MEMB     26       POPC     H11A     HAL2     0.900000E-01   1.00800           0
      3334 MEMB     26       POPC     H11B     HAL2     0.900000E-01   1.00800           0
      3335 MEMB     26       POPC     P        PL        1.50000       30.9740           0
      3336 MEMB     26       POPC     O13      O2L     -0.780000       15.9994           0
      3337 MEMB     26       POPC     O14      O2L     -0.780000       15.9994           0
      3338 MEMB     26       POPC     O12      OSLP    -0.570000       15.9994           0
      3339 MEMB     26       POPC     O11      OSLP    -0.570000       15.9994           0
      3340 MEMB     26       POPC     C1       CTL2    -0.800000E-01   12.0110           0
      3341 MEMB     26       POPC     HA       HAL2     0.900000E-01   1.00800           0
      3342 MEMB     26       POPC     HB       HAL2     0.900000E-01   1.00800           0
      3343 MEMB     26       POPC     C2       CTL1     0.170000       12.0110           0
      3344 MEMB     26       POPC     HS       HAL1     0.900000E-01   1.00800           0
      3345 MEMB     26       POPC     O21      OSL     -0.490000       15.9994           0
      3346 MEMB     26       POPC     C21      CL       0.900000       12.0110           0
      3347 MEMB     26       POPC     O22      OBL     -0.630000       15.9994           0
      3348 MEMB     26       POPC     C22      CTL2    -0.220000       12.0110           0
      3349 MEMB     26       POPC     H2R      HAL2     0.900000E-01   1.00800           0
      3350 MEMB     26       POPC     H2S      HAL2     0.900000E-01   1.00800           0
      3351 MEMB     26       POPC     C3       CTL2     0.800000E-01   12.0110           0
      3352 MEMB     26       POPC     HX       HAL2     0.900000E-01   1.00800           0
      3353 MEMB     26       POPC     HY       HAL2     0.900000E-01   1.00800           0
      3354 MEMB     26       POPC     O31      OSL     -0.490000       15.9994           0
      3355 MEMB     26       POPC     C31      CL       0.900000       12.0110           0
      3356 MEMB     26       POPC     O32      OBL     -0.630000       15.9994           0
      3357 MEMB     26       POPC     C32      CTL2    -0.220000       12.0110           0
      3358 MEMB     26       POPC     H2X      HAL2     0.900000E-01   1.00800           0
      3359 MEMB     26       POPC     H2Y      HAL2     0.900000E-01   1.00800           0
      3360 MEMB     26       POPC     C23      CTL2    -0.180000       12.0110           0
      3361 MEMB     26       POPC     H3R      HAL2     0.900000E-01   1.00800           0
      3362 MEMB     26       POPC     H3S      HAL2     0.900000E-01   1.00800           0
      3363 MEMB     26       POPC     C24      CTL2    -0.180000       12.0110           0
      3364 MEMB     26       POPC     H4R      HAL2     0.900000E-01   1.00800           0
      3365 MEMB     26       POPC     H4S      HAL2     0.900000E-01   1.00800           0
      3366 MEMB     26       POPC     C25      CTL2    -0.180000       12.0110           0
      3367 MEMB     26       POPC     H5R      HAL2     0.900000E-01   1.00800           0
      3368 MEMB     26       POPC     H5S      HAL2     0.900000E-01   1.00800           0
      3369 MEMB     26       POPC     C26      CTL2    -0.180000       12.0110           0
      3370 MEMB     26       POPC     H6R      HAL2     0.900000E-01   1.00800           0
      3371 MEMB     26       POPC     H6S      HAL2     0.900000E-01   1.00800           0
      3372 MEMB     26       POPC     C27      CTL2    -0.180000       12.0110           0
      3373 MEMB     26       POPC     H7R      HAL2     0.900000E-01   1.00800           0
      3374 MEMB     26       POPC     H7S      HAL2     0.900000E-01   1.00800           0
      3375 MEMB     26       POPC     C28      CTL2    -0.180000       12.0110           0
      3376 MEMB     26       POPC     H8R      HAL2     0.900000E-01   1.00800           0
      3377 MEMB     26       POPC     H8S      HAL2     0.900000E-01   1.00800           0
      3378 MEMB     26       POPC     C29      CEL1    -0.150000       12.0110           0
      3379 MEMB     26       POPC     H91      HEL1     0.150000       1.00800           0
      3380 MEMB     26       POPC     C210     CEL1    -0.150000       12.0110           0
      3381 MEMB     26       POPC     H101     HEL1     0.150000       1.00800           0
      3382 MEMB     26       POPC     C211     CTL2    -0.180000       12.0110           0
      3383 MEMB     26       POPC     H11R     HAL2     0.900000E-01   1.00800           0
      3384 MEMB     26       POPC     H11S     HAL2     0.900000E-01   1.00800           0
      3385 MEMB     26       POPC     C212     CTL2    -0.180000       12.0110           0
      3386 MEMB     26       POPC     H12R     HAL2     0.900000E-01   1.00800           0
      3387 MEMB     26       POPC     H12S     HAL2     0.900000E-01   1.00800           0
      3388 MEMB     26       POPC     C213     CTL2    -0.180000       12.0110           0
      3389 MEMB     26       POPC     H13R     HAL2     0.900000E-01   1.00800           0
      3390 MEMB     26       POPC     H13S     HAL2     0.900000E-01   1.00800           0
      3391 MEMB     26       POPC     C214     CTL2    -0.180000       12.0110           0
      3392 MEMB     26       POPC     H14R     HAL2     0.900000E-01   1.00800           0
      3393 MEMB     26       POPC     H14S     HAL2     0.900000E-01   1.00800           0
      3394 MEMB     26       POPC     C215     CTL2    -0.180000       12.0110           0
      3395 MEMB     26       POPC     H15R     HAL2     0.900000E-01   1.00800           0
      3396 MEMB     26       POPC     H15S     HAL2     0.900000E-01   1.00800           0
      3397 MEMB     26       POPC     C216     CTL2    -0.180000       12.0110           0
      3398 MEMB     26       POPC     H16R     HAL2     0.900000E-01   1.00800           0
      3399 MEMB     26       POPC     H16S     HAL2     0.900000E-01   1.00800           0
      3400 MEMB     26       POPC     C217     CTL2    -0.180000       12.0110           0
      3401 MEMB     26       POPC     H17R     HAL2     0.900000E-01   1.00800           0
      3402 MEMB     26       POPC     H17S     HAL2     0.900000E-01   1.00800           0
      3403 MEMB     26       POPC     C218     CTL3    -0.270000       12.0110           0
      3404 MEMB     26       POPC     H18R     HAL3     0.900000E-01   1.00800           0
      3405 MEMB     26       POPC     H18S     HAL3     0.900000E-01   1.00800           0
      3406 MEMB     26       POPC     H18T     HAL3     0.900000E-01   1.00800           0
      3407 MEMB     26       POPC     C33      CTL2    -0.180000       12.0110           0
      3408 MEMB     26       POPC     H3X      HAL2     0.900000E-01   1.00800           0
      3409 MEMB     26       POPC     H3Y      HAL2     0.900000E-01   1.00800           0
      3410 MEMB     26       POPC     C34      CTL2    -0.180000       12.0110           0
      3411 MEMB     26       POPC     H4X      HAL2     0.900000E-01   1.00800           0
      3412 MEMB     26       POPC     H4Y      HAL2     0.900000E-01   1.00800           0
      3413 MEMB     26       POPC     C35      CTL2    -0.180000       12.0110           0
      3414 MEMB     26       POPC     H5X      HAL2     0.900000E-01   1.00800           0
      3415 MEMB     26       POPC     H5Y      HAL2     0.900000E-01   1.00800           0
      3416 MEMB     26       POPC     C36      CTL2    -0.180000       12.0110           0
      3417 MEMB     26       POPC     H6X      HAL2     0.900000E-01   1.00800           0
      3418 MEMB     26       POPC     H6Y      HAL2     0.900000E-01   1.00800           0
      3419 MEMB     26       POPC     C37      CTL2    -0.180000       12.0110           0
      3420 MEMB     26       POPC     H7X      HAL2     0.900000E-01   1.00800           0
      3421 MEMB     26       POPC     H7Y      HAL2     0.900000E-01   1.00800           0
      3422 MEMB     26       POPC     C38      CTL2    -0.180000       12.0110           0
      3423 MEMB     26       POPC     H8X      HAL2     0.900000E-01   1.00800           0
      3424 MEMB     26       POPC     H8Y      HAL2     0.900000E-01   1.00800           0
      3425 MEMB     26       POPC     C39      CTL2    -0.180000       12.0110           0
      3426 MEMB     26       POPC     H9X      HAL2     0.900000E-01   1.00800           0
      3427 MEMB     26       POPC     H9Y      HAL2     0.900000E-01   1.00800           0
      3428 MEMB     26       POPC     C310     CTL2    -0.180000       12.0110           0
      3429 MEMB     26       POPC     H10X     HAL2     0.900000E-01   1.00800           0
      3430 MEMB     26       POPC     H10Y     HAL2     0.900000E-01   1.00800           0
      3431 MEMB     26       POPC     C311     CTL2    -0.180000       12.0110           0
      3432 MEMB     26       POPC     H11X     HAL2     0.900000E-01   1.00800           0
      3433 MEMB     26       POPC     H11Y     HAL2     0.900000E-01   1.00800           0
      3434 MEMB     26       POPC     C312     CTL2    -0.180000       12.0110           0
      3435 MEMB     26       POPC     H12X     HAL2     0.900000E-01   1.00800           0
      3436 MEMB     26       POPC     H12Y     HAL2     0.900000E-01   1.00800           0
      3437 MEMB     26       POPC     C313     CTL2    -0.180000       12.0110           0
      3438 MEMB     26       POPC     H13X     HAL2     0.900000E-01   1.00800           0
      3439 MEMB     26       POPC     H13Y     HAL2     0.900000E-01   1.00800           0
      3440 MEMB     26       POPC     C314     CTL2    -0.180000       12.0110           0
      3441 MEMB     26       POPC     H14X     HAL2     0.900000E-01   1.00800           0
      3442 MEMB     26       POPC     H14Y     HAL2     0.900000E-01   1.00800           0
      3443 MEMB     26       POPC     C315     CTL2    -0.180000       12.0110           0
      3444 MEMB     26       POPC     H15X     HAL2     0.900000E-01   1.00800           0
      3445 MEMB     26       POPC     H15Y     HAL2     0.900000E-01   1.00800           0
      3446 MEMB     26       POPC     C316     CTL3    -0.270000       12.0110           0
      3447 MEMB     26       POPC     H16X     HAL3     0.900000E-01   1.00800           0
      3448 MEMB     26       POPC     H16Y     HAL3     0.900000E-01   1.00800           0
      3449 MEMB     26       POPC     H16Z     HAL3     0.900000E-01   1.00800           0
      3450 MEMB     27       POPC     N        NTL     -0.600000       14.0070           0
      3451 MEMB     27       POPC     C12      CTL2    -0.100000       12.0110           0
      3452 MEMB     27       POPC     H12A     HL       0.250000       1.00800           0
      3453 MEMB     27       POPC     H12B     HL       0.250000       1.00800           0
      3454 MEMB     27       POPC     C13      CTL5    -0.350000       12.0110           0
      3455 MEMB     27       POPC     H13A     HL       0.250000       1.00800           0
      3456 MEMB     27       POPC     H13B     HL       0.250000       1.00800           0
      3457 MEMB     27       POPC     H13C     HL       0.250000       1.00800           0
      3458 MEMB     27       POPC     C14      CTL5    -0.350000       12.0110           0
      3459 MEMB     27       POPC     H14A     HL       0.250000       1.00800           0
      3460 MEMB     27       POPC     H14B     HL       0.250000       1.00800           0
      3461 MEMB     27       POPC     H14C     HL       0.250000       1.00800           0
      3462 MEMB     27       POPC     C15      CTL5    -0.350000       12.0110           0
      3463 MEMB     27       POPC     H15A     HL       0.250000       1.00800           0
      3464 MEMB     27       POPC     H15B     HL       0.250000       1.00800           0
      3465 MEMB     27       POPC     H15C     HL       0.250000       1.00800           0
      3466 MEMB     27       POPC     C11      CTL2    -0.800000E-01   12.0110           0
      3467 MEMB     27       POPC     H11A     HAL2     0.900000E-01   1.00800           0
      3468 MEMB     27       POPC     H11B     HAL2     0.900000E-01   1.00800           0
      3469 MEMB     27       POPC     P        PL        1.50000       30.9740           0
      3470 MEMB     27       POPC     O13      O2L     -0.780000       15.9994           0
      3471 MEMB     27       POPC     O14      O2L     -0.780000       15.9994           0
      3472 MEMB     27       POPC     O12      OSLP    -0.570000       15.9994           0
      3473 MEMB     27       POPC     O11      OSLP    -0.570000       15.9994           0
      3474 MEMB     27       POPC     C1       CTL2    -0.800000E-01   12.0110           0
      3475 MEMB     27       POPC     HA       HAL2     0.900000E-01   1.00800           0
      3476 MEMB     27       POPC     HB       HAL2     0.900000E-01   1.00800           0
      3477 MEMB     27       POPC     C2       CTL1     0.170000       12.0110           0
      3478 MEMB     27       POPC     HS       HAL1     0.900000E-01   1.00800           0
      3479 MEMB     27       POPC     O21      OSL     -0.490000       15.9994           0
      3480 MEMB     27       POPC     C21      CL       0.900000       12.0110           0
      3481 MEMB     27       POPC     O22      OBL     -0.630000       15.9994           0
      3482 MEMB     27       POPC     C22      CTL2    -0.220000       12.0110           0
      3483 MEMB     27       POPC     H2R      HAL2     0.900000E-01   1.00800           0
      3484 MEMB     27       POPC     H2S      HAL2     0.900000E-01   1.00800           0
      3485 MEMB     27       POPC     C3       CTL2     0.800000E-01   12.0110           0
      3486 MEMB     27       POPC     HX       HAL2     0.900000E-01   1.00800           0
      3487 MEMB     27       POPC     HY       HAL2     0.900000E-01   1.00800           0
      3488 MEMB     27       POPC     O31      OSL     -0.490000       15.9994           0
      3489 MEMB     27       POPC     C31      CL       0.900000       12.0110           0
      3490 MEMB     27       POPC     O32      OBL     -0.630000       15.9994           0
      3491 MEMB     27       POPC     C32      CTL2    -0.220000       12.0110           0
      3492 MEMB     27       POPC     H2X      HAL2     0.900000E-01   1.00800           0
      3493 MEMB     27       POPC     H2Y      HAL2     0.900000E-01   1.00800           0
      3494 MEMB     27       POPC     C23      CTL2    -0.180000       12.0110           0
      3495 MEMB     27       POPC     H3R      HAL2     0.900000E-01   1.00800           0
      3496 MEMB     27       POPC     H3S      HAL2     0.900000E-01   1.00800           0
      3497 MEMB     27       POPC     C24      CTL2    -0.180000       12.0110           0
      3498 MEMB     27       POPC     H4R      HAL2     0.900000E-01   1.00800           0
      3499 MEMB     27       POPC     H4S      HAL2     0.900000E-01   1.00800           0
      3500 MEMB     27       POPC     C25      CTL2    -0.180000       12.0110           0
      3501 MEMB     27       POPC     H5R      HAL2     0.900000E-01   1.00800           0
      3502 MEMB     27       POPC     H5S      HAL2     0.900000E-01   1.00800           0
      3503 MEMB     27       POPC     C26      CTL2    -0.180000       12.0110           0
      3504 MEMB     27       POPC     H6R      HAL2     0.900000E-01   1.00800           0
      3505 MEMB     27       POPC     H6S      HAL2     0.900000E-01   1.00800           0
      3506 MEMB     27       POPC     C27      CTL2    -0.180000       12.0110           0
      3507 MEMB     27       POPC     H7R      HAL2     0.900000E-01   1.00800           0
      3508 MEMB     27       POPC     H7S      HAL2     0.900000E-01   1.00800           0
      3509 MEMB     27       POPC     C28      CTL2    -0.180000       12.0110           0
      3510 MEMB     27       POPC     H8R      HAL2     0.900000E-01   1.00800           0
      3511 MEMB     27       POPC     H8S      HAL2     0.900000E-01   1.00800           0
      3512 MEMB     27       POPC     C29      CEL1    -0.150000       12.0110           0
      3513 MEMB     27       POPC     H91      HEL1     0.150000       1.00800           0
      3514 MEMB     27       POPC     C210     CEL1    -0.150000       12.0110           0
      3515 MEMB     27       POPC     H101     HEL1     0.150000       1.00800           0
      3516 MEMB     27       POPC     C211     CTL2    -0.180000       12.0110           0
      3517 MEMB     27       POPC     H11R     HAL2     0.900000E-01   1.00800           0
      3518 MEMB     27       POPC     H11S     HAL2     0.900000E-01   1.00800           0
      3519 MEMB     27       POPC     C212     CTL2    -0.180000       12.0110           0
      3520 MEMB     27       POPC     H12R     HAL2     0.900000E-01   1.00800           0
      3521 MEMB     27       POPC     H12S     HAL2     0.900000E-01   1.00800           0
      3522 MEMB     27       POPC     C213     CTL2    -0.180000       12.0110           0
      3523 MEMB     27       POPC     H13R     HAL2     0.900000E-01   1.00800           0
      3524 MEMB     27       POPC     H13S     HAL2     0.900000E-01   1.00800           0
      3525 MEMB     27       POPC     C214     CTL2    -0.180000       12.0110           0
      3526 MEMB     27       POPC     H14R     HAL2     0.900000E-01   1.00800           0
      3527 MEMB     27       POPC     H14S     HAL2     0.900000E-01   1.00800           0
      3528 MEMB     27       POPC     C215     CTL2    -0.180000       12.0110           0
      3529 MEMB     27       POPC     H15R     HAL2     0.900000E-01   1.00800           0
      3530 MEMB     27       POPC     H15S     HAL2     0.900000E-01   1.00800           0
      3531 MEMB     27       POPC     C216     CTL2    -0.180000       12.0110           0
      3532 MEMB     27       POPC     H16R     HAL2     0.900000E-01   1.00800           0
      3533 MEMB     27       POPC     H16S     HAL2     0.900000E-01   1.00800           0
      3534 MEMB     27       POPC     C217     CTL2    -0.180000       12.0110           0
      3535 MEMB     27       POPC     H17R     HAL2     0.900000E-01   1.00800           0
      3536 MEMB     27       POPC     H17S     HAL2     0.900000E-01   1.00800           0
      3537 MEMB     27       POPC     C218     CTL3    -0.270000       12.0110           0
      3538 MEMB     27       POPC     H18R     HAL3     0.900000E-01   1.00800           0
      3539 MEMB     27       POPC     H18S     HAL3     0.900000E-01   1.00800           0
      3540 MEMB     27       POPC     H18T     HAL3     0.900000E-01   1.00800           0
      3541 MEMB     27       POPC     C33      CTL2    -0.180000       12.0110           0
      3542 MEMB     27       POPC     H3X      HAL2     0.900000E-01   1.00800           0
      3543 MEMB     27       POPC     H3Y      HAL2     0.900000E-01   1.00800           0
      3544 MEMB     27       POPC     C34      CTL2    -0.180000       12.0110           0
      3545 MEMB     27       POPC     H4X      HAL2     0.900000E-01   1.00800           0
      3546 MEMB     27       POPC     H4Y      HAL2     0.900000E-01   1.00800           0
      3547 MEMB     27       POPC     C35      CTL2    -0.180000       12.0110           0
      3548 MEMB     27       POPC     H5X      HAL2     0.900000E-01   1.00800           0
      3549 MEMB     27       POPC     H5Y      HAL2     0.900000E-01   1.00800           0
      3550 MEMB     27       POPC     C36      CTL2    -0.180000       12.0110           0
      3551 MEMB     27       POPC     H6X      HAL2     0.900000E-01   1.00800           0
      3552 MEMB     27       POPC     H6Y      HAL2     0.900000E-01   1.00800           0
      3553 MEMB     27       POPC     C37      CTL2    -0.180000       12.0110           0
      3554 MEMB     27       POPC     H7X      HAL2     0.900000E-01   1.00800           0
      3555 MEMB     27       POPC     H7Y      HAL2     0.900000E-01   1.00800           0
      3556 MEMB     27       POPC     C38      CTL2    -0.180000       12.0110           0
      3557 MEMB     27       POPC     H8X      HAL2     0.900000E-01   1.00800           0
      3558 MEMB     27       POPC     H8Y      HAL2     0.900000E-01   1.00800           0
      3559 MEMB     27       POPC     C39      CTL2    -0.180000       12.0110           0
      3560 MEMB     27       POPC     H9X      HAL2     0.900000E-01   1.00800           0
      3561 MEMB     27       POPC     H9Y      HAL2     0.900000E-01   1.00800           0
      3562 MEMB     27       POPC     C310     CTL2    -0.180000       12.0110           0
      3563 MEMB     27       POPC     H10X     HAL2     0.900000E-01   1.00800           0
      3564 MEMB     27       POPC     H10Y     HAL2     0.900000E-01   1.00800           0
      3565 MEMB     27       POPC     C311     CTL2    -0.180000       12.0110           0
      3566 MEMB     27       POPC     H11X     HAL2     0.900000E-01   1.00800           0
      3567 MEMB     27       POPC     H11Y     HAL2     0.900000E-01   1.00800           0
      3568 MEMB     27       POPC     C312     CTL2    -0.180000       12.0110           0
      3569 MEMB     27       POPC     H12X     HAL2     0.900000E-01   1.00800           0
      3570 MEMB     27       POPC     H12Y     HAL2     0.900000E-01   1.00800           0
      3571 MEMB     27       POPC     C313     CTL2    -0.180000       12.0110           0
      3572 MEMB     27       POPC     H13X     HAL2     0.900000E-01   1.00800           0
      3573 MEMB     27       POPC     H13Y     HAL2     0.900000E-01   1.00800           0
      3574 MEMB     27       POPC     C314     CTL2    -0.180000       12.0110           0
      3575 MEMB     27       POPC     H14X     HAL2     0.900000E-01   1.00800           0
      3576 MEMB     27       POPC     H14Y     HAL2     0.900000E-01   1.00800           0
      3577 MEMB     27       POPC     C315     CTL2    -0.180000       12.0110           0
      3578 MEMB     27       POPC     H15X     HAL2     0.900000E-01   1.00800           0
      3579 MEMB     27       POPC     H15Y     HAL2     0.900000E-01   1.00800           0
      3580 MEMB     27       POPC     C316     CTL3    -0.270000       12.0110           0
      3581 MEMB     27       POPC     H16X     HAL3     0.900000E-01   1.00800           0
      3582 MEMB     27       POPC     H16Y     HAL3     0.900000E-01   1.00800           0
      3583 MEMB     27       POPC     H16Z     HAL3     0.900000E-01   1.00800           0
      3584 MEMB     28       POPC     N        NTL     -0.600000       14.0070           0
      3585 MEMB     28       POPC     C12      CTL2    -0.100000       12.0110           0
      3586 MEMB     28       POPC     H12A     HL       0.250000       1.00800           0
      3587 MEMB     28       POPC     H12B     HL       0.250000       1.00800           0
      3588 MEMB     28       POPC     C13      CTL5    -0.350000       12.0110           0
      3589 MEMB     28       POPC     H13A     HL       0.250000       1.00800           0
      3590 MEMB     28       POPC     H13B     HL       0.250000       1.00800           0
      3591 MEMB     28       POPC     H13C     HL       0.250000       1.00800           0
      3592 MEMB     28       POPC     C14      CTL5    -0.350000       12.0110           0
      3593 MEMB     28       POPC     H14A     HL       0.250000       1.00800           0
      3594 MEMB     28       POPC     H14B     HL       0.250000       1.00800           0
      3595 MEMB     28       POPC     H14C     HL       0.250000       1.00800           0
      3596 MEMB     28       POPC     C15      CTL5    -0.350000       12.0110           0
      3597 MEMB     28       POPC     H15A     HL       0.250000       1.00800           0
      3598 MEMB     28       POPC     H15B     HL       0.250000       1.00800           0
      3599 MEMB     28       POPC     H15C     HL       0.250000       1.00800           0
      3600 MEMB     28       POPC     C11      CTL2    -0.800000E-01   12.0110           0
      3601 MEMB     28       POPC     H11A     HAL2     0.900000E-01   1.00800           0
      3602 MEMB     28       POPC     H11B     HAL2     0.900000E-01   1.00800           0
      3603 MEMB     28       POPC     P        PL        1.50000       30.9740           0
      3604 MEMB     28       POPC     O13      O2L     -0.780000       15.9994           0
      3605 MEMB     28       POPC     O14      O2L     -0.780000       15.9994           0
      3606 MEMB     28       POPC     O12      OSLP    -0.570000       15.9994           0
      3607 MEMB     28       POPC     O11      OSLP    -0.570000       15.9994           0
      3608 MEMB     28       POPC     C1       CTL2    -0.800000E-01   12.0110           0
      3609 MEMB     28       POPC     HA       HAL2     0.900000E-01   1.00800           0
      3610 MEMB     28       POPC     HB       HAL2     0.900000E-01   1.00800           0
      3611 MEMB     28       POPC     C2       CTL1     0.170000       12.0110           0
      3612 MEMB     28       POPC     HS       HAL1     0.900000E-01   1.00800           0
      3613 MEMB     28       POPC     O21      OSL     -0.490000       15.9994           0
      3614 MEMB     28       POPC     C21      CL       0.900000       12.0110           0
      3615 MEMB     28       POPC     O22      OBL     -0.630000       15.9994           0
      3616 MEMB     28       POPC     C22      CTL2    -0.220000       12.0110           0
      3617 MEMB     28       POPC     H2R      HAL2     0.900000E-01   1.00800           0
      3618 MEMB     28       POPC     H2S      HAL2     0.900000E-01   1.00800           0
      3619 MEMB     28       POPC     C3       CTL2     0.800000E-01   12.0110           0
      3620 MEMB     28       POPC     HX       HAL2     0.900000E-01   1.00800           0
      3621 MEMB     28       POPC     HY       HAL2     0.900000E-01   1.00800           0
      3622 MEMB     28       POPC     O31      OSL     -0.490000       15.9994           0
      3623 MEMB     28       POPC     C31      CL       0.900000       12.0110           0
      3624 MEMB     28       POPC     O32      OBL     -0.630000       15.9994           0
      3625 MEMB     28       POPC     C32      CTL2    -0.220000       12.0110           0
      3626 MEMB     28       POPC     H2X      HAL2     0.900000E-01   1.00800           0
      3627 MEMB     28       POPC     H2Y      HAL2     0.900000E-01   1.00800           0
      3628 MEMB     28       POPC     C23      CTL2    -0.180000       12.0110           0
      3629 MEMB     28       POPC     H3R      HAL2     0.900000E-01   1.00800           0
      3630 MEMB     28       POPC     H3S      HAL2     0.900000E-01   1.00800           0
      3631 MEMB     28       POPC     C24      CTL2    -0.180000       12.0110           0
      3632 MEMB     28       POPC     H4R      HAL2     0.900000E-01   1.00800           0
      3633 MEMB     28       POPC     H4S      HAL2     0.900000E-01   1.00800           0
      3634 MEMB     28       POPC     C25      CTL2    -0.180000       12.0110           0
      3635 MEMB     28       POPC     H5R      HAL2     0.900000E-01   1.00800           0
      3636 MEMB     28       POPC     H5S      HAL2     0.900000E-01   1.00800           0
      3637 MEMB     28       POPC     C26      CTL2    -0.180000       12.0110           0
      3638 MEMB     28       POPC     H6R      HAL2     0.900000E-01   1.00800           0
      3639 MEMB     28       POPC     H6S      HAL2     0.900000E-01   1.00800           0
      3640 MEMB     28       POPC     C27      CTL2    -0.180000       12.0110           0
      3641 MEMB     28       POPC     H7R      HAL2     0.900000E-01   1.00800           0
      3642 MEMB     28       POPC     H7S      HAL2     0.900000E-01   1.00800           0
      3643 MEMB     28       POPC     C28      CTL2    -0.180000       12.0110           0
      3644 MEMB     28       POPC     H8R      HAL2     0.900000E-01   1.00800           0
      3645 MEMB     28       POPC     H8S      HAL2     0.900000E-01   1.00800           0
      3646 MEMB     28       POPC     C29      CEL1    -0.150000       12.0110           0
      3647 MEMB     28       POPC     H91      HEL1     0.150000       1.00800           0
      3648 MEMB     28       POPC     C210     CEL1    -0.150000       12.0110           0
      3649 MEMB     28       POPC     H101     HEL1     0.150000       1.00800           0
      3650 MEMB     28       POPC     C211     CTL2    -0.180000       12.0110           0
      3651 MEMB     28       POPC     H11R     HAL2     0.900000E-01   1.00800           0
      3652 MEMB     28       POPC     H11S     HAL2     0.900000E-01   1.00800           0
      3653 MEMB     28       POPC     C212     CTL2    -0.180000       12.0110           0
      3654 MEMB     28       POPC     H12R     HAL2     0.900000E-01   1.00800           0
      3655 MEMB     28       POPC     H12S     HAL2     0.900000E-01   1.00800           0
      3656 MEMB     28       POPC     C213     CTL2    -0.180000       12.0110           0
      3657 MEMB     28       POPC     H13R     HAL2     0.900000E-01   1.00800           0
      3658 MEMB     28       POPC     H13S     HAL2     0.900000E-01   1.00800           0
      3659 MEMB     28       POPC     C214     CTL2    -0.180000       12.0110           0
      3660 MEMB     28       POPC     H14R     HAL2     0.900000E-01   1.00800           0
      3661 MEMB     28       POPC     H14S     HAL2     0.900000E-01   1.00800           0
      3662 MEMB     28       POPC     C215     CTL2    -0.180000       12.0110           0
      3663 MEMB     28       POPC     H15R     HAL2     0.900000E-01   1.00800           0
      3664 MEMB     28       POPC     H15S     HAL2     0.900000E-01   1.00800           0
      3665 MEMB     28       POPC     C216     CTL2    -0.180000       12.0110           0
      3666 MEMB     28       POPC     H16R     HAL2     0.900000E-01   1.00800           0
      3667 MEMB     28       POPC     H16S     HAL2     0.900000E-01   1.00800           0
      3668 MEMB     28       POPC     C217     CTL2    -0.180000       12.0110           0
      3669 MEMB     28       POPC     H17R     HAL2     0.900000E-01   1.00800           0
      3670 MEMB     28       POPC     H17S     HAL2     0.900000E-01   1.00800           0
      3671 MEMB     28       POPC     C218     CTL3    -0.270000       12.0110           0
      3672 MEMB     28       POPC     H18R     HAL3     0.900000E-01   1.00800           0
      3673 MEMB     28       POPC     H18S     HAL3     0.900000E-01   1.00800           0
      3674 MEMB     28       POPC     H18T     HAL3     0.900000E-01   1.00800           0
      3675 MEMB     28       POPC     C33      CTL2    -0.180000       12.0110           0
      3676 MEMB     28       POPC     H3X      HAL2     0.900000E-01   1.00800           0
      3677 MEMB     28       POPC     H3Y      HAL2     0.900000E-01   1.00800           0
      3678 MEMB     28       POPC     C34      CTL2    -0.180000       12.0110           0
      3679 MEMB     28       POPC     H4X      HAL2     0.900000E-01   1.00800           0
      3680 MEMB     28       POPC     H4Y      HAL2     0.900000E-01   1.00800           0
      3681 MEMB     28       POPC     C35      CTL2    -0.180000       12.0110           0
      3682 MEMB     28       POPC     H5X      HAL2     0.900000E-01   1.00800           0
      3683 MEMB     28       POPC     H5Y      HAL2     0.900000E-01   1.00800           0
      3684 MEMB     28       POPC     C36      CTL2    -0.180000       12.0110           0
      3685 MEMB     28       POPC     H6X      HAL2     0.900000E-01   1.00800           0
      3686 MEMB     28       POPC     H6Y      HAL2     0.900000E-01   1.00800           0
      3687 MEMB     28       POPC     C37      CTL2    -0.180000       12.0110           0
      3688 MEMB     28       POPC     H7X      HAL2     0.900000E-01   1.00800           0
      3689 MEMB     28       POPC     H7Y      HAL2     0.900000E-01   1.00800           0
      3690 MEMB     28       POPC     C38      CTL2    -0.180000       12.0110           0
      3691 MEMB     28       POPC     H8X      HAL2     0.900000E-01   1.00800           0
      3692 MEMB     28       POPC     H8Y      HAL2     0.900000E-01   1.00800           0
      3693 MEMB     28       POPC     C39      CTL2    -0.180000       12.0110           0
      3694 MEMB     28       POPC     H9X      HAL2     0.900000E-01   1.00800           0
      3695 MEMB     28       POPC     H9Y      HAL2     0.900000E-01   1.00800           0
      3696 MEMB     28       POPC     C310     CTL2    -0.180000       12.0110           0
      3697 MEMB     28       POPC     H10X     HAL2     0.900000E-01   1.00800           0
      3698 MEMB     28       POPC     H10Y     HAL2     0.900000E-01   1.00800           0
      3699 MEMB     28       POPC     C311     CTL2    -0.180000       12.0110           0
      3700 MEMB     28       POPC     H11X     HAL2     0.900000E-01   1.00800           0
      3701 MEMB     28       POPC     H11Y     HAL2     0.900000E-01   1.00800           0
      3702 MEMB     28       POPC     C312     CTL2    -0.180000       12.0110           0
      3703 MEMB     28       POPC     H12X     HAL2     0.900000E-01   1.00800           0
      3704 MEMB     28       POPC     H12Y     HAL2     0.900000E-01   1.00800           0
      3705 MEMB     28       POPC     C313     CTL2    -0.180000       12.0110           0
      3706 MEMB     28       POPC     H13X     HAL2     0.900000E-01   1.00800           0
      3707 MEMB     28       POPC     H13Y     HAL2     0.900000E-01   1.00800           0
      3708 MEMB     28       POPC     C314     CTL2    -0.180000       12.0110           0
      3709 MEMB     28       POPC     H14X     HAL2     0.900000E-01   1.00800           0
      3710 MEMB     28       POPC     H14Y     HAL2     0.900000E-01   1.00800           0
      3711 MEMB     28       POPC     C315     CTL2    -0.180000       12.0110           0
      3712 MEMB     28       POPC     H15X     HAL2     0.900000E-01   1.00800           0
      3713 MEMB     28       POPC     H15Y     HAL2     0.900000E-01   1.00800           0
      3714 MEMB     28       POPC     C316     CTL3    -0.270000       12.0110           0
      3715 MEMB     28       POPC     H16X     HAL3     0.900000E-01   1.00800           0
      3716 MEMB     28       POPC     H16Y     HAL3     0.900000E-01   1.00800           0
      3717 MEMB     28       POPC     H16Z     HAL3     0.900000E-01   1.00800           0
      3718 MEMB     29       POPC     N        NTL     -0.600000       14.0070           0
      3719 MEMB     29       POPC     C12      CTL2    -0.100000       12.0110           0
      3720 MEMB     29       POPC     H12A     HL       0.250000       1.00800           0
      3721 MEMB     29       POPC     H12B     HL       0.250000       1.00800           0
      3722 MEMB     29       POPC     C13      CTL5    -0.350000       12.0110           0
      3723 MEMB     29       POPC     H13A     HL       0.250000       1.00800           0
      3724 MEMB     29       POPC     H13B     HL       0.250000       1.00800           0
      3725 MEMB     29       POPC     H13C     HL       0.250000       1.00800           0
      3726 MEMB     29       POPC     C14      CTL5    -0.350000       12.0110           0
      3727 MEMB     29       POPC     H14A     HL       0.250000       1.00800           0
      3728 MEMB     29       POPC     H14B     HL       0.250000       1.00800           0
      3729 MEMB     29       POPC     H14C     HL       0.250000       1.00800           0
      3730 MEMB     29       POPC     C15      CTL5    -0.350000       12.0110           0
      3731 MEMB     29       POPC     H15A     HL       0.250000       1.00800           0
      3732 MEMB     29       POPC     H15B     HL       0.250000       1.00800           0
      3733 MEMB     29       POPC     H15C     HL       0.250000       1.00800           0
      3734 MEMB     29       POPC     C11      CTL2    -0.800000E-01   12.0110           0
      3735 MEMB     29       POPC     H11A     HAL2     0.900000E-01   1.00800           0
      3736 MEMB     29       POPC     H11B     HAL2     0.900000E-01   1.00800           0
      3737 MEMB     29       POPC     P        PL        1.50000       30.9740           0
      3738 MEMB     29       POPC     O13      O2L     -0.780000       15.9994           0
      3739 MEMB     29       POPC     O14      O2L     -0.780000       15.9994           0
      3740 MEMB     29       POPC     O12      OSLP    -0.570000       15.9994           0
      3741 MEMB     29       POPC     O11      OSLP    -0.570000       15.9994           0
      3742 MEMB     29       POPC     C1       CTL2    -0.800000E-01   12.0110           0
      3743 MEMB     29       POPC     HA       HAL2     0.900000E-01   1.00800           0
      3744 MEMB     29       POPC     HB       HAL2     0.900000E-01   1.00800           0
      3745 MEMB     29       POPC     C2       CTL1     0.170000       12.0110           0
      3746 MEMB     29       POPC     HS       HAL1     0.900000E-01   1.00800           0
      3747 MEMB     29       POPC     O21      OSL     -0.490000       15.9994           0
      3748 MEMB     29       POPC     C21      CL       0.900000       12.0110           0
      3749 MEMB     29       POPC     O22      OBL     -0.630000       15.9994           0
      3750 MEMB     29       POPC     C22      CTL2    -0.220000       12.0110           0
      3751 MEMB     29       POPC     H2R      HAL2     0.900000E-01   1.00800           0
      3752 MEMB     29       POPC     H2S      HAL2     0.900000E-01   1.00800           0
      3753 MEMB     29       POPC     C3       CTL2     0.800000E-01   12.0110           0
      3754 MEMB     29       POPC     HX       HAL2     0.900000E-01   1.00800           0
      3755 MEMB     29       POPC     HY       HAL2     0.900000E-01   1.00800           0
      3756 MEMB     29       POPC     O31      OSL     -0.490000       15.9994           0
      3757 MEMB     29       POPC     C31      CL       0.900000       12.0110           0
      3758 MEMB     29       POPC     O32      OBL     -0.630000       15.9994           0
      3759 MEMB     29       POPC     C32      CTL2    -0.220000       12.0110           0
      3760 MEMB     29       POPC     H2X      HAL2     0.900000E-01   1.00800           0
      3761 MEMB     29       POPC     H2Y      HAL2     0.900000E-01   1.00800           0
      3762 MEMB     29       POPC     C23      CTL2    -0.180000       12.0110           0
      3763 MEMB     29       POPC     H3R      HAL2     0.900000E-01   1.00800           0
      3764 MEMB     29       POPC     H3S      HAL2     0.900000E-01   1.00800           0
      3765 MEMB     29       POPC     C24      CTL2    -0.180000       12.0110           0
      3766 MEMB     29       POPC     H4R      HAL2     0.900000E-01   1.00800           0
      3767 MEMB     29       POPC     H4S      HAL2     0.900000E-01   1.00800           0
      3768 MEMB     29       POPC     C25      CTL2    -0.180000       12.0110           0
      3769 MEMB     29       POPC     H5R      HAL2     0.900000E-01   1.00800           0
      3770 MEMB     29       POPC     H5S      HAL2     0.900000E-01   1.00800           0
      3771 MEMB     29       POPC     C26      CTL2    -0.180000       12.0110           0
      3772 MEMB     29       POPC     H6R      HAL2     0.900000E-01   1.00800           0
      3773 MEMB     29       POPC     H6S      HAL2     0.900000E-01   1.00800           0
      3774 MEMB     29       POPC     C27      CTL2    -0.180000       12.0110           0
      3775 MEMB     29       POPC     H7R      HAL2     0.900000E-01   1.00800           0
      3776 MEMB     29       POPC     H7S      HAL2     0.900000E-01   1.00800           0
      3777 MEMB     29       POPC     C28      CTL2    -0.180000       12.0110           0
      3778 MEMB     29       POPC     H8R      HAL2     0.900000E-01   1.00800           0
      3779 MEMB     29       POPC     H8S      HAL2     0.900000E-01   1.00800           0
      3780 MEMB     29       POPC     C29      CEL1    -0.150000       12.0110           0
      3781 MEMB     29       POPC     H91      HEL1     0.150000       1.00800           0
      3782 MEMB     29       POPC     C210     CEL1    -0.150000       12.0110           0
      3783 MEMB     29       POPC     H101     HEL1     0.150000       1.00800           0
      3784 MEMB     29       POPC     C211     CTL2    -0.180000       12.0110           0
      3785 MEMB     29       POPC     H11R     HAL2     0.900000E-01   1.00800           0
      3786 MEMB     29       POPC     H11S     HAL2     0.900000E-01   1.00800           0
      3787 MEMB     29       POPC     C212     CTL2    -0.180000       12.0110           0
      3788 MEMB     29       POPC     H12R     HAL2     0.900000E-01   1.00800           0
      3789 MEMB     29       POPC     H12S     HAL2     0.900000E-01   1.00800           0
      3790 MEMB     29       POPC     C213     CTL2    -0.180000       12.0110           0
      3791 MEMB     29       POPC     H13R     HAL2     0.900000E-01   1.00800           0
      3792 MEMB     29       POPC     H13S     HAL2     0.900000E-01   1.00800           0
      3793 MEMB     29       POPC     C214     CTL2    -0.180000       12.0110           0
      3794 MEMB     29       POPC     H14R     HAL2     0.900000E-01   1.00800           0
      3795 MEMB     29       POPC     H14S     HAL2     0.900000E-01   1.00800           0
      3796 MEMB     29       POPC     C215     CTL2    -0.180000       12.0110           0
      3797 MEMB     29       POPC     H15R     HAL2     0.900000E-01   1.00800           0
      3798 MEMB     29       POPC     H15S     HAL2     0.900000E-01   1.00800           0
      3799 MEMB     29       POPC     C216     CTL2    -0.180000       12.0110           0
      3800 MEMB     29       POPC     H16R     HAL2     0.900000E-01   1.00800           0
      3801 MEMB     29       POPC     H16S     HAL2     0.900000E-01   1.00800           0
      3802 MEMB     29       POPC     C217     CTL2    -0.180000       12.0110           0
      3803 MEMB     29       POPC     H17R     HAL2     0.900000E-01   1.00800           0
      3804 MEMB     29       POPC     H17S     HAL2     0.900000E-01   1.00800           0
      3805 MEMB     29       POPC     C218     CTL3    -0.270000       12.0110           0
      3806 MEMB     29       POPC     H18R     HAL3     0.900000E-01   1.00800           0
      3807 MEMB     29       POPC     H18S     HAL3     0.900000E-01   1.00800           0
      3808 MEMB     29       POPC     H18T     HAL3     0.900000E-01   1.00800           0
      3809 MEMB     29       POPC     C33      CTL2    -0.180000       12.0110           0
      3810 MEMB     29       POPC     H3X      HAL2     0.900000E-01   1.00800           0
      3811 MEMB     29       POPC     H3Y      HAL2     0.900000E-01   1.00800           0
      3812 MEMB     29       POPC     C34      CTL2    -0.180000       12.0110           0
      3813 MEMB     29       POPC     H4X      HAL2     0.900000E-01   1.00800           0
      3814 MEMB     29       POPC     H4Y      HAL2     0.900000E-01   1.00800           0
      3815 MEMB     29       POPC     C35      CTL2    -0.180000       12.0110           0
      3816 MEMB     29       POPC     H5X      HAL2     0.900000E-01   1.00800           0
      3817 MEMB     29       POPC     H5Y      HAL2     0.900000E-01   1.00800           0
      3818 MEMB     29       POPC     C36      CTL2    -0.180000       12.0110           0
      3819 MEMB     29       POPC     H6X      HAL2     0.900000E-01   1.00800           0
      3820 MEMB     29       POPC     H6Y      HAL2     0.900000E-01   1.00800           0
      3821 MEMB     29       POPC     C37      CTL2    -0.180000       12.0110           0
      3822 MEMB     29       POPC     H7X      HAL2     0.900000E-01   1.00800           0
      3823 MEMB     29       POPC     H7Y      HAL2     0.900000E-01   1.00800           0
      3824 MEMB     29       POPC     C38      CTL2    -0.180000       12.0110           0
      3825 MEMB     29       POPC     H8X      HAL2     0.900000E-01   1.00800           0
      3826 MEMB     29       POPC     H8Y      HAL2     0.900000E-01   1.00800           0
      3827 MEMB     29       POPC     C39      CTL2    -0.180000       12.0110           0
      3828 MEMB     29       POPC     H9X      HAL2     0.900000E-01   1.00800           0
      3829 MEMB     29       POPC     H9Y      HAL2     0.900000E-01   1.00800           0
      3830 MEMB     29       POPC     C310     CTL2    -0.180000       12.0110           0
      3831 MEMB     29       POPC     H10X     HAL2     0.900000E-01   1.00800           0
      3832 MEMB     29       POPC     H10Y     HAL2     0.900000E-01   1.00800           0
      3833 MEMB     29       POPC     C311     CTL2    -0.180000       12.0110           0
      3834 MEMB     29       POPC     H11X     HAL2     0.900000E-01   1.00800           0
      3835 MEMB     29       POPC     H11Y     HAL2     0.900000E-01   1.00800           0
      3836 MEMB     29       POPC     C312     CTL2    -0.180000       12.0110           0
      3837 MEMB     29       POPC     H12X     HAL2     0.900000E-01   1.00800           0
      3838 MEMB     29       POPC     H12Y     HAL2     0.900000E-01   1.00800           0
      3839 MEMB     29       POPC     C313     CTL2    -0.180000       12.0110           0
      3840 MEMB     29       POPC     H13X     HAL2     0.900000E-01   1.00800           0
      3841 MEMB     29       POPC     H13Y     HAL2     0.900000E-01   1.00800           0
      3842 MEMB     29       POPC     C314     CTL2    -0.180000       12.0110           0
      3843 MEMB     29       POPC     H14X     HAL2     0.900000E-01   1.00800           0
      3844 MEMB     29       POPC     H14Y     HAL2     0.900000E-01   1.00800           0
      3845 MEMB     29       POPC     C315     CTL2    -0.180000       12.0110           0
      3846 MEMB     29       POPC     H15X     HAL2     0.900000E-01   1.00800           0
      3847 MEMB     29       POPC     H15Y     HAL2     0.900000E-01   1.00800           0
      3848 MEMB     29       POPC     C316     CTL3    -0.270000       12.0110           0
      3849 MEMB     29       POPC     H16X     HAL3     0.900000E-01   1.00800           0
      3850 MEMB     29       POPC     H16Y     HAL3     0.900000E-01   1.00800           0
      3851 MEMB     29       POPC     H16Z     HAL3     0.900000E-01   1.00800           0
      3852 MEMB     30       POPC     N        NTL     -0.600000       14.0070           0
      3853 MEMB     30       POPC     C12      CTL2    -0.100000       12.0110           0
      3854 MEMB     30       POPC     H12A     HL       0.250000       1.00800           0
      3855 MEMB     30       POPC     H12B     HL       0.250000       1.00800           0
      3856 MEMB     30       POPC     C13      CTL5    -0.350000       12.0110           0
      3857 MEMB     30       POPC     H13A     HL       0.250000       1.00800           0
      3858 MEMB     30       POPC     H13B     HL       0.250000       1.00800           0
      3859 MEMB     30       POPC     H13C     HL       0.250000       1.00800           0
      3860 MEMB     30       POPC     C14      CTL5    -0.350000       12.0110           0
      3861 MEMB     30       POPC     H14A     HL       0.250000       1.00800           0
      3862 MEMB     30       POPC     H14B     HL       0.250000       1.00800           0
      3863 MEMB     30       POPC     H14C     HL       0.250000       1.00800           0
      3864 MEMB     30       POPC     C15      CTL5    -0.350000       12.0110           0
      3865 MEMB     30       POPC     H15A     HL       0.250000       1.00800           0
      3866 MEMB     30       POPC     H15B     HL       0.250000       1.00800           0
      3867 MEMB     30       POPC     H15C     HL       0.250000       1.00800           0
      3868 MEMB     30       POPC     C11      CTL2    -0.800000E-01   12.0110           0
      3869 MEMB     30       POPC     H11A     HAL2     0.900000E-01   1.00800           0
      3870 MEMB     30       POPC     H11B     HAL2     0.900000E-01   1.00800           0
      3871 MEMB     30       POPC     P        PL        1.50000       30.9740           0
      3872 MEMB     30       POPC     O13      O2L     -0.780000       15.9994           0
      3873 MEMB     30       POPC     O14      O2L     -0.780000       15.9994           0
      3874 MEMB     30       POPC     O12      OSLP    -0.570000       15.9994           0
      3875 MEMB     30       POPC     O11      OSLP    -0.570000       15.9994           0
      3876 MEMB     30       POPC     C1       CTL2    -0.800000E-01   12.0110           0
      3877 MEMB     30       POPC     HA       HAL2     0.900000E-01   1.00800           0
      3878 MEMB     30       POPC     HB       HAL2     0.900000E-01   1.00800           0
      3879 MEMB     30       POPC     C2       CTL1     0.170000       12.0110           0
      3880 MEMB     30       POPC     HS       HAL1     0.900000E-01   1.00800           0
      3881 MEMB     30       POPC     O21      OSL     -0.490000       15.9994           0
      3882 MEMB     30       POPC     C21      CL       0.900000       12.0110           0
      3883 MEMB     30       POPC     O22      OBL     -0.630000       15.9994           0
      3884 MEMB     30       POPC     C22      CTL2    -0.220000       12.0110           0
      3885 MEMB     30       POPC     H2R      HAL2     0.900000E-01   1.00800           0
      3886 MEMB     30       POPC     H2S      HAL2     0.900000E-01   1.00800           0
      3887 MEMB     30       POPC     C3       CTL2     0.800000E-01   12.0110           0
      3888 MEMB     30       POPC     HX       HAL2     0.900000E-01   1.00800           0
      3889 MEMB     30       POPC     HY       HAL2     0.900000E-01   1.00800           0
      3890 MEMB     30       POPC     O31      OSL     -0.490000       15.9994           0
      3891 MEMB     30       POPC     C31      CL       0.900000       12.0110           0
      3892 MEMB     30       POPC     O32      OBL     -0.630000       15.9994           0
      3893 MEMB     30       POPC     C32      CTL2    -0.220000       12.0110           0
      3894 MEMB     30       POPC     H2X      HAL2     0.900000E-01   1.00800           0
      3895 MEMB     30       POPC     H2Y      HAL2     0.900000E-01   1.00800           0
      3896 MEMB     30       POPC     C23      CTL2    -0.180000       12.0110           0
      3897 MEMB     30       POPC     H3R      HAL2     0.900000E-01   1.00800           0
      3898 MEMB     30       POPC     H3S      HAL2     0.900000E-01   1.00800           0
      3899 MEMB     30       POPC     C24      CTL2    -0.180000       12.0110           0
      3900 MEMB     30       POPC     H4R      HAL2     0.900000E-01   1.00800           0
      3901 MEMB     30       POPC     H4S      HAL2     0.900000E-01   1.00800           0
      3902 MEMB     30       POPC     C25      CTL2    -0.180000       12.0110           0
      3903 MEMB     30       POPC     H5R      HAL2     0.900000E-01   1.00800           0
      3904 MEMB     30       POPC     H5S      HAL2     0.900000E-01   1.00800           0
      3905 MEMB     30       POPC     C26      CTL2    -0.180000       12.0110           0
      3906 MEMB     30       POPC     H6R      HAL2     0.900000E-01   1.00800           0
      3907 MEMB     30       POPC     H6S      HAL2     0.900000E-01   1.00800           0
      3908 MEMB     30       POPC     C27      CTL2    -0.180000       12.0110           0
      3909 MEMB     30       POPC     H7R      HAL2     0.900000E-01   1.00800           0
      3910 MEMB     30       POPC     H7S      HAL2     0.900000E-01   1.00800           0
      3911 MEMB     30       POPC     C28      CTL2    -0.180000       12.0110           0
      3912 MEMB     30       POPC     H8R      HAL2     0.900000E-01   1.00800           0
      3913 MEMB     30       POPC     H8S      HAL2     0.900000E-01   1.00800           0
      3914 MEMB     30       POPC     C29      CEL1    -0.150000       12.0110           0
      3915 MEMB     30       POPC     H91      HEL1     0.150000       1.00800           0
      3916 MEMB     30       POPC     C210     CEL1    -0.150000       12.0110           0
      3917 MEMB     30       POPC     H101     HEL1     0.150000       1.00800           0
      3918 MEMB     30       POPC     C211     CTL2    -0.180000       12.0110           0
      3919 MEMB     30       POPC     H11R     HAL2     0.900000E-01   1.00800           0
      3920 MEMB     30       POPC     H11S     HAL2     0.900000E-01   1.00800           0
      3921 MEMB     30       POPC     C212     CTL2    -0.180000       12.0110           0
      3922 MEMB     30       POPC     H12R     HAL2     0.900000E-01   1.00800           0
      3923 MEMB     30       POPC     H12S     HAL2     0.900000E-01   1.00800           0
      3924 MEMB     30       POPC     C213     CTL2    -0.180000       12.0110           0
      3925 MEMB     30       POPC     H13R     HAL2     0.900000E-01   1.00800           0
      3926 MEMB     30       POPC     H13S     HAL2     0.900000E-01   1.00800           0
      3927 MEMB     30       POPC     C214     CTL2    -0.180000       12.0110           0
      3928 MEMB     30       POPC     H14R     HAL2     0.900000E-01   1.00800           0
      3929 MEMB     30       POPC     H14S     HAL2     0.900000E-01   1.00800           0
      3930 MEMB     30       POPC     C215     CTL2    -0.180000       12.0110           0
      3931 MEMB     30       POPC     H15R     HAL2     0.900000E-01   1.00800           0
      3932 MEMB     30       POPC     H15S     HAL2     0.900000E-01   1.00800           0
      3933 MEMB     30       POPC     C216     CTL2    -0.180000       12.0110           0
      3934 MEMB     30       POPC     H16R     HAL2     0.900000E-01   1.00800           0
      3935 MEMB     30       POPC     H16S     HAL2     0.900000E-01   1.00800           0
      3936 MEMB     30       POPC     C217     CTL2    -0.180000       12.0110           0
      3937 MEMB     30       POPC     H17R     HAL2     0.900000E-01   1.00800           0
      3938 MEMB     30       POPC     H17S     HAL2     0.900000E-01   1.00800           0
      3939 MEMB     30       POPC     C218     CTL3    -0.270000       12.0110           0
      3940 MEMB     30       POPC     H18R     HAL3     0.900000E-01   1.00800           0
      3941 MEMB     30       POPC     H18S     HAL3     0.900000E-01   1.00800           0
      3942 MEMB     30       POPC     H18T     HAL3     0.900000E-01   1.00800           0
      3943 MEMB     30       POPC     C33      CTL2    -0.180000       12.0110           0
      3944 MEMB     30       POPC     H3X      HAL2     0.900000E-01   1.00800           0
      3945 MEMB     30       POPC     H3Y      HAL2     0.900000E-01   1.00800           0
      3946 MEMB     30       POPC     C34      CTL2    -0.180000       12.0110           0
      3947 MEMB     30       POPC     H4X      HAL2     0.900000E-01   1.00800           0
      3948 MEMB     30       POPC     H4Y      HAL2     0.900000E-01   1.00800           0
      3949 MEMB     30       POPC     C35      CTL2    -0.180000       12.0110           0
      3950 MEMB     30       POPC     H5X      HAL2     0.900000E-01   1.00800           0
      3951 MEMB     30       POPC     H5Y      HAL2     0.900000E-01   1.00800           0
      3952 MEMB     30       POPC     C36      CTL2    -0.180000       12.0110           0
      3953 MEMB     30       POPC     H6X      HAL2     0.900000E-01   1.00800           0
      3954 MEMB     30       POPC     H6Y      HAL2     0.900000E-01   1.00800           0
      3955 MEMB     30       POPC     C37      CTL2    -0.180000       12.0110           0
      3956 MEMB     30       POPC     H7X      HAL2     0.900000E-01   1.00800           0
      3957 MEMB     30       POPC     H7Y      HAL2     0.900000E-01   1.00800           0
      3958 MEMB     30       POPC     C38      CTL2    -0.180000       12.0110           0
      3959 MEMB     30       POPC     H8X      HAL2     0.900000E-01   1.00800           0
      3960 MEMB     30       POPC     H8Y      HAL2     0.900000E-01   1.00800           0
      3961 MEMB     30       POPC     C39      CTL2    -0.180000       12.0110           0
      3962 MEMB     30       POPC     H9X      HAL2     0.900000E-01   1.00800           0
      3963 MEMB     30       POPC     H9Y      HAL2     0.900000E-01   1.00800           0
      3964 MEMB     30       POPC     C310     CTL2    -0.180000       12.0110           0
      3965 MEMB     30       POPC     H10X     HAL2     0.900000E-01   1.00800           0
      3966 MEMB     30       POPC     H10Y     HAL2     0.900000E-01   1.00800           0
      3967 MEMB     30       POPC     C311     CTL2    -0.180000       12.0110           0
      3968 MEMB     30       POPC     H11X     HAL2     0.900000E-01   1.00800           0
      3969 MEMB     30       POPC     H11Y     HAL2     0.900000E-01   1.00800           0
      3970 MEMB     30       POPC     C312     CTL2    -0.180000       12.0110           0
      3971 MEMB     30       POPC     H12X     HAL2     0.900000E-01   1.00800           0
      3972 MEMB     30       POPC     H12Y     HAL2     0.900000E-01   1.00800           0
      3973 MEMB     30       POPC     C313     CTL2    -0.180000       12.0110           0
      3974 MEMB     30       POPC     H13X     HAL2     0.900000E-01   1.00800           0
      3975 MEMB     30       POPC     H13Y     HAL2     0.900000E-01   1.00800           0
      3976 MEMB     30       POPC     C314     CTL2    -0.180000       12.0110           0
      3977 MEMB     30       POPC     H14X     HAL2     0.900000E-01   1.00800           0
      3978 MEMB     30       POPC     H14Y     HAL2     0.900000E-01   1.00800           0
      3979 MEMB     30       POPC     C315     CTL2    -0.180000       12.0110           0
      3980 MEMB     30       POPC     H15X     HAL2     0.900000E-01   1.00800           0
      3981 MEMB     30       POPC     H15Y     HAL2     0.900000E-01   1.00800           0
      3982 MEMB     30       POPC     C316     CTL3    -0.270000       12.0110           0
      3983 MEMB     30       POPC     H16X     HAL3     0.900000E-01   1.00800           0
      3984 MEMB     30       POPC     H16Y     HAL3     0.900000E-01   1.00800           0
      3985 MEMB     30       POPC     H16Z     HAL3     0.900000E-01   1.00800           0
      3986 MEMB     31       POPS     N        NH3L    -0.300000       14.0070           0
      3987 MEMB     31       POPS     HN1      HCL      0.330000       1.00800           0
      3988 MEMB     31       POPS     HN2      HCL      0.330000       1.00800           0
      3989 MEMB     31       POPS     HN3      HCL      0.330000       1.00800           0
      3990 MEMB     31       POPS     C12      CTL1     0.210000       12.0110           0
      3991 MEMB     31       POPS     H12A     HBL      0.100000       1.00800           0
      3992 MEMB     31       POPS     C13      CCL      0.340000       12.0110           0
      3993 MEMB     31       POPS     O13A     OCL     -0.670000       15.9994           0
      3994 MEMB     31       POPS     O13B     OCL     -0.670000       15.9994           0
      3995 MEMB     31       POPS     C11      CTL2    -0.800000E-01   12.0110           0
      3996 MEMB     31       POPS     H11A     HAL2     0.900000E-01   1.00800           0
      3997 MEMB     31       POPS     H11B     HAL2     0.900000E-01   1.00800           0
      3998 MEMB     31       POPS     P        PL        1.50000       30.9740           0
      3999 MEMB     31       POPS     O13      O2L     -0.780000       15.9994           0
      4000 MEMB     31       POPS     O14      O2L     -0.780000       15.9994           0
      4001 MEMB     31       POPS     O12      OSLP    -0.570000       15.9994           0
      4002 MEMB     31       POPS     O11      OSLP    -0.570000       15.9994           0
      4003 MEMB     31       POPS     C1       CTL2    -0.800000E-01   12.0110           0
      4004 MEMB     31       POPS     HA       HAL2     0.900000E-01   1.00800           0
      4005 MEMB     31       POPS     HB       HAL2     0.900000E-01   1.00800           0
      4006 MEMB     31       POPS     C2       CTL1     0.170000       12.0110           0
      4007 MEMB     31       POPS     HS       HAL1     0.900000E-01   1.00800           0
      4008 MEMB     31       POPS     O21      OSL     -0.490000       15.9994           0
      4009 MEMB     31       POPS     C21      CL       0.900000       12.0110           0
      4010 MEMB     31       POPS     O22      OBL     -0.630000       15.9994           0
      4011 MEMB     31       POPS     C22      CTL2    -0.220000       12.0110           0
      4012 MEMB     31       POPS     H2R      HAL2     0.900000E-01   1.00800           0
      4013 MEMB     31       POPS     H2S      HAL2     0.900000E-01   1.00800           0
      4014 MEMB     31       POPS     C3       CTL2     0.800000E-01   12.0110           0
      4015 MEMB     31       POPS     HX       HAL2     0.900000E-01   1.00800           0
      4016 MEMB     31       POPS     HY       HAL2     0.900000E-01   1.00800           0
      4017 MEMB     31       POPS     O31      OSL     -0.490000       15.9994           0
      4018 MEMB     31       POPS     C31      CL       0.900000       12.0110           0
      4019 MEMB     31       POPS     O32      OBL     -0.630000       15.9994           0
      4020 MEMB     31       POPS     C32      CTL2    -0.220000       12.0110           0
      4021 MEMB     31       POPS     H2X      HAL2     0.900000E-01   1.00800           0
      4022 MEMB     31       POPS     H2Y      HAL2     0.900000E-01   1.00800           0
      4023 MEMB     31       POPS     C23      CTL2    -0.180000       12.0110           0
      4024 MEMB     31       POPS     H3R      HAL2     0.900000E-01   1.00800           0
      4025 MEMB     31       POPS     H3S      HAL2     0.900000E-01   1.00800           0
      4026 MEMB     31       POPS     C24      CTL2    -0.180000       12.0110           0
      4027 MEMB     31       POPS     H4R      HAL2     0.900000E-01   1.00800           0
      4028 MEMB     31       POPS     H4S      HAL2     0.900000E-01   1.00800           0
      4029 MEMB     31       POPS     C25      CTL2    -0.180000       12.0110           0
      4030 MEMB     31       POPS     H5R      HAL2     0.900000E-01   1.00800           0
      4031 MEMB     31       POPS     H5S      HAL2     0.900000E-01   1.00800           0
      4032 MEMB     31       POPS     C26      CTL2    -0.180000       12.0110           0
      4033 MEMB     31       POPS     H6R      HAL2     0.900000E-01   1.00800           0
      4034 MEMB     31       POPS     H6S      HAL2     0.900000E-01   1.00800           0
      4035 MEMB     31       POPS     C27      CTL2    -0.180000       12.0110           0
      4036 MEMB     31       POPS     H7R      HAL2     0.900000E-01   1.00800           0
      4037 MEMB     31       POPS     H7S      HAL2     0.900000E-01   1.00800           0
      4038 MEMB     31       POPS     C28      CTL2    -0.180000       12.0110           0
      4039 MEMB     31       POPS     H8R      HAL2     0.900000E-01   1.00800           0
      4040 MEMB     31       POPS     H8S      HAL2     0.900000E-01   1.00800           0
      4041 MEMB     31       POPS     C29      CEL1    -0.150000       12.0110           0
      4042 MEMB     31       POPS     H91      HEL1     0.150000       1.00800           0
      4043 MEMB     31       POPS     C210     CEL1    -0.150000       12.0110           0
      4044 MEMB     31       POPS     H101     HEL1     0.150000       1.00800           0
      4045 MEMB     31       POPS     C211     CTL2    -0.180000       12.0110           0
      4046 MEMB     31       POPS     H11R     HAL2     0.900000E-01   1.00800           0
      4047 MEMB     31       POPS     H11S     HAL2     0.900000E-01   1.00800           0
      4048 MEMB     31       POPS     C212     CTL2    -0.180000       12.0110           0
      4049 MEMB     31       POPS     H12R     HAL2     0.900000E-01   1.00800           0
      4050 MEMB     31       POPS     H12S     HAL2     0.900000E-01   1.00800           0
      4051 MEMB     31       POPS     C213     CTL2    -0.180000       12.0110           0
      4052 MEMB     31       POPS     H13R     HAL2     0.900000E-01   1.00800           0
      4053 MEMB     31       POPS     H13S     HAL2     0.900000E-01   1.00800           0
      4054 MEMB     31       POPS     C214     CTL2    -0.180000       12.0110           0
      4055 MEMB     31       POPS     H14R     HAL2     0.900000E-01   1.00800           0
      4056 MEMB     31       POPS     H14S     HAL2     0.900000E-01   1.00800           0
      4057 MEMB     31       POPS     C215     CTL2    -0.180000       12.0110           0
      4058 MEMB     31       POPS     H15R     HAL2     0.900000E-01   1.00800           0
      4059 MEMB     31       POPS     H15S     HAL2     0.900000E-01   1.00800           0
      4060 MEMB     31       POPS     C216     CTL2    -0.180000       12.0110           0
      4061 MEMB     31       POPS     H16R     HAL2     0.900000E-01   1.00800           0
      4062 MEMB     31       POPS     H16S     HAL2     0.900000E-01   1.00800           0
      4063 MEMB     31       POPS     C217     CTL2    -0.180000       12.0110           0
      4064 MEMB     31       POPS     H17R     HAL2     0.900000E-01   1.00800           0
      4065 MEMB     31       POPS     H17S     HAL2     0.900000E-01   1.00800           0
      4066 MEMB     31       POPS     C218     CTL3    -0.270000       12.0110           0
      4067 MEMB     31       POPS     H18R     HAL3     0.900000E-01   1.00800           0
      4068 MEMB     31       POPS     H18S     HAL3     0.900000E-01   1.00800           0
      4069 MEMB     31       POPS     H18T     HAL3     0.900000E-01   1.00800           0
      4070 MEMB     31       POPS     C33      CTL2    -0.180000       12.0110           0
      4071 MEMB     31       POPS     H3X      HAL2     0.900000E-01   1.00800           0
      4072 MEMB     31       POPS     H3Y      HAL2     0.900000E-01   1.00800           0
      4073 MEMB     31       POPS     C34      CTL2    -0.180000       12.0110           0
      4074 MEMB     31       POPS     H4X      HAL2     0.900000E-01   1.00800           0
      4075 MEMB     31       POPS     H4Y      HAL2     0.900000E-01   1.00800           0
      4076 MEMB     31       POPS     C35      CTL2    -0.180000       12.0110           0
      4077 MEMB     31       POPS     H5X      HAL2     0.900000E-01   1.00800           0
      4078 MEMB     31       POPS     H5Y      HAL2     0.900000E-01   1.00800           0
      4079 MEMB     31       POPS     C36      CTL2    -0.180000       12.0110           0
      4080 MEMB     31       POPS     H6X      HAL2     0.900000E-01   1.00800           0
      4081 MEMB     31       POPS     H6Y      HAL2     0.900000E-01   1.00800           0
      4082 MEMB     31       POPS     C37      CTL2    -0.180000       12.0110           0
      4083 MEMB     31       POPS     H7X      HAL2     0.900000E-01   1.00800           0
      4084 MEMB     31       POPS     H7Y      HAL2     0.900000E-01   1.00800           0
      4085 MEMB     31       POPS     C38      CTL2    -0.180000       12.0110           0
      4086 MEMB     31       POPS     H8X      HAL2     0.900000E-01   1.00800           0
      4087 MEMB     31       POPS     H8Y      HAL2     0.900000E-01   1.00800           0
      4088 MEMB     31       POPS     C39      CTL2    -0.180000       12.0110           0
      4089 MEMB     31       POPS     H9X      HAL2     0.900000E-01   1.00800           0
      4090 MEMB     31       POPS     H9Y      HAL2     0.900000E-01   1.00800           0
      4091 MEMB     31       POPS     C310     CTL2    -0.180000       12.0110           0
      4092 MEMB     31       POPS     H10X     HAL2     0.900000E-01   1.00800           0
      4093 MEMB     31       POPS     H10Y     HAL2     0.900000E-01   1.00800           0
      4094 MEMB     31       POPS     C311     CTL2    -0.180000       12.0110           0
      4095 MEMB     31       POPS     H11X     HAL2     0.900000E-01   1.00800           0
      4096 MEMB     31       POPS     H11Y     HAL2     0.900000E-01   1.00800           0
      4097 MEMB     31       POPS     C312     CTL2    -0.180000       12.0110           0
      4098 MEMB     31       POPS     H12X     HAL2     0.900000E-01   1.00800           0
      4099 MEMB     31       POPS     H12Y     HAL2     0.900000E-01   1.00800           0
      4100 MEMB     31       POPS     C313     CTL2    -0.180000       12.0110           0
      4101 MEMB     31       POPS     H13X     HAL2     0.900000E-01   1.00800           0
      4102 MEMB     31       POPS     H13Y     HAL2     0.900000E-01   1.00800           0
      4103 MEMB     31       POPS     C314     CTL2    -0.180000       12.0110           0
      4104 MEMB     31       POPS     H14X     HAL2     0.900000E-01   1.00800           0
      4105 MEMB     31       POPS     H14Y     HAL2     0.900000E-01   1.00800           0
      4106 MEMB     31       POPS     C315     CTL2    -0.180000       12.0110           0
      4107 MEMB     31       POPS     H15X     HAL2     0.900000E-01   1.00800           0
      4108 MEMB     31       POPS     H15Y     HAL2     0.900000E-01   1.00800           0
      4109 MEMB     31       POPS     C316     CTL3    -0.270000       12.0110           0
      4110 MEMB     31       POPS     H16X     HAL3     0.900000E-01   1.00800           0
      4111 MEMB     31       POPS     H16Y     HAL3     0.900000E-01   1.00800           0
      4112 MEMB     31       POPS     H16Z     HAL3     0.900000E-01   1.00800           0
      4113 MEMB     32       POPC     N        NTL     -0.600000       14.0070           0
      4114 MEMB     32       POPC     C12      CTL2    -0.100000       12.0110           0
      4115 MEMB     32       POPC     H12A     HL       0.250000       1.00800           0
      4116 MEMB     32       POPC     H12B     HL       0.250000       1.00800           0
      4117 MEMB     32       POPC     C13      CTL5    -0.350000       12.0110           0
      4118 MEMB     32       POPC     H13A     HL       0.250000       1.00800           0
      4119 MEMB     32       POPC     H13B     HL       0.250000       1.00800           0
      4120 MEMB     32       POPC     H13C     HL       0.250000       1.00800           0
      4121 MEMB     32       POPC     C14      CTL5    -0.350000       12.0110           0
      4122 MEMB     32       POPC     H14A     HL       0.250000       1.00800           0
      4123 MEMB     32       POPC     H14B     HL       0.250000       1.00800           0
      4124 MEMB     32       POPC     H14C     HL       0.250000       1.00800           0
      4125 MEMB     32       POPC     C15      CTL5    -0.350000       12.0110           0
      4126 MEMB     32       POPC     H15A     HL       0.250000       1.00800           0
      4127 MEMB     32       POPC     H15B     HL       0.250000       1.00800           0
      4128 MEMB     32       POPC     H15C     HL       0.250000       1.00800           0
      4129 MEMB     32       POPC     C11      CTL2    -0.800000E-01   12.0110           0
      4130 MEMB     32       POPC     H11A     HAL2     0.900000E-01   1.00800           0
      4131 MEMB     32       POPC     H11B     HAL2     0.900000E-01   1.00800           0
      4132 MEMB     32       POPC     P        PL        1.50000       30.9740           0
      4133 MEMB     32       POPC     O13      O2L     -0.780000       15.9994           0
      4134 MEMB     32       POPC     O14      O2L     -0.780000       15.9994           0
      4135 MEMB     32       POPC     O12      OSLP    -0.570000       15.9994           0
      4136 MEMB     32       POPC     O11      OSLP    -0.570000       15.9994           0
      4137 MEMB     32       POPC     C1       CTL2    -0.800000E-01   12.0110           0
      4138 MEMB     32       POPC     HA       HAL2     0.900000E-01   1.00800           0
      4139 MEMB     32       POPC     HB       HAL2     0.900000E-01   1.00800           0
      4140 MEMB     32       POPC     C2       CTL1     0.170000       12.0110           0
      4141 MEMB     32       POPC     HS       HAL1     0.900000E-01   1.00800           0
      4142 MEMB     32       POPC     O21      OSL     -0.490000       15.9994           0
      4143 MEMB     32       POPC     C21      CL       0.900000       12.0110           0
      4144 MEMB     32       POPC     O22      OBL     -0.630000       15.9994           0
      4145 MEMB     32       POPC     C22      CTL2    -0.220000       12.0110           0
      4146 MEMB     32       POPC     H2R      HAL2     0.900000E-01   1.00800           0
      4147 MEMB     32       POPC     H2S      HAL2     0.900000E-01   1.00800           0
      4148 MEMB     32       POPC     C3       CTL2     0.800000E-01   12.0110           0
      4149 MEMB     32       POPC     HX       HAL2     0.900000E-01   1.00800           0
      4150 MEMB     32       POPC     HY       HAL2     0.900000E-01   1.00800           0
      4151 MEMB     32       POPC     O31      OSL     -0.490000       15.9994           0
      4152 MEMB     32       POPC     C31      CL       0.900000       12.0110           0
      4153 MEMB     32       POPC     O32      OBL     -0.630000       15.9994           0
      4154 MEMB     32       POPC     C32      CTL2    -0.220000       12.0110           0
      4155 MEMB     32       POPC     H2X      HAL2     0.900000E-01   1.00800           0
      4156 MEMB     32       POPC     H2Y      HAL2     0.900000E-01   1.00800           0
      4157 MEMB     32       POPC     C23      CTL2    -0.180000       12.0110           0
      4158 MEMB     32       POPC     H3R      HAL2     0.900000E-01   1.00800           0
      4159 MEMB     32       POPC     H3S      HAL2     0.900000E-01   1.00800           0
      4160 MEMB     32       POPC     C24      CTL2    -0.180000       12.0110           0
      4161 MEMB     32       POPC     H4R      HAL2     0.900000E-01   1.00800           0
      4162 MEMB     32       POPC     H4S      HAL2     0.900000E-01   1.00800           0
      4163 MEMB     32       POPC     C25      CTL2    -0.180000       12.0110           0
      4164 MEMB     32       POPC     H5R      HAL2     0.900000E-01   1.00800           0
      4165 MEMB     32       POPC     H5S      HAL2     0.900000E-01   1.00800           0
      4166 MEMB     32       POPC     C26      CTL2    -0.180000       12.0110           0
      4167 MEMB     32       POPC     H6R      HAL2     0.900000E-01   1.00800           0
      4168 MEMB     32       POPC     H6S      HAL2     0.900000E-01   1.00800           0
      4169 MEMB     32       POPC     C27      CTL2    -0.180000       12.0110           0
      4170 MEMB     32       POPC     H7R      HAL2     0.900000E-01   1.00800           0
      4171 MEMB     32       POPC     H7S      HAL2     0.900000E-01   1.00800           0
      4172 MEMB     32       POPC     C28      CTL2    -0.180000       12.0110           0
      4173 MEMB     32       POPC     H8R      HAL2     0.900000E-01   1.00800           0
      4174 MEMB     32       POPC     H8S      HAL2     0.900000E-01   1.00800           0
      4175 MEMB     32       POPC     C29      CEL1    -0.150000       12.0110           0
      4176 MEMB     32       POPC     H91      HEL1     0.150000       1.00800           0
      4177 MEMB     32       POPC     C210     CEL1    -0.150000       12.0110           0
      4178 MEMB     32       POPC     H101     HEL1     0.150000       1.00800           0
      4179 MEMB     32       POPC     C211     CTL2    -0.180000       12.0110           0
      4180 MEMB     32       POPC     H11R     HAL2     0.900000E-01   1.00800           0
      4181 MEMB     32       POPC     H11S     HAL2     0.900000E-01   1.00800           0
      4182 MEMB     32       POPC     C212     CTL2    -0.180000       12.0110           0
      4183 MEMB     32       POPC     H12R     HAL2     0.900000E-01   1.00800           0
      4184 MEMB     32       POPC     H12S     HAL2     0.900000E-01   1.00800           0
      4185 MEMB     32       POPC     C213     CTL2    -0.180000       12.0110           0
      4186 MEMB     32       POPC     H13R     HAL2     0.900000E-01   1.00800           0
      4187 MEMB     32       POPC     H13S     HAL2     0.900000E-01   1.00800           0
      4188 MEMB     32       POPC     C214     CTL2    -0.180000       12.0110           0
      4189 MEMB     32       POPC     H14R     HAL2     0.900000E-01   1.00800           0
      4190 MEMB     32       POPC     H14S     HAL2     0.900000E-01   1.00800           0
      4191 MEMB     32       POPC     C215     CTL2    -0.180000       12.0110           0
      4192 MEMB     32       POPC     H15R     HAL2     0.900000E-01   1.00800           0
      4193 MEMB     32       POPC     H15S     HAL2     0.900000E-01   1.00800           0
      4194 MEMB     32       POPC     C216     CTL2    -0.180000       12.0110           0
      4195 MEMB     32       POPC     H16R     HAL2     0.900000E-01   1.00800           0
      4196 MEMB     32       POPC     H16S     HAL2     0.900000E-01   1.00800           0
      4197 MEMB     32       POPC     C217     CTL2    -0.180000       12.0110           0
      4198 MEMB     32       POPC     H17R     HAL2     0.900000E-01   1.00800           0
      4199 MEMB     32       POPC     H17S     HAL2     0.900000E-01   1.00800           0
      4200 MEMB     32       POPC     C218     CTL3    -0.270000       12.0110           0
      4201 MEMB     32       POPC     H18R     HAL3     0.900000E-01   1.00800           0
      4202 MEMB     32       POPC     H18S     HAL3     0.900000E-01   1.00800           0
      4203 MEMB     32       POPC     H18T     HAL3     0.900000E-01   1.00800           0
      4204 MEMB     32       POPC     C33      CTL2    -0.180000       12.0110           0
      4205 MEMB     32       POPC     H3X      HAL2     0.900000E-01   1.00800           0
      4206 MEMB     32       POPC     H3Y      HAL2     0.900000E-01   1.00800           0
      4207 MEMB     32       POPC     C34      CTL2    -0.180000       12.0110           0
      4208 MEMB     32       POPC     H4X      HAL2     0.900000E-01   1.00800           0
      4209 MEMB     32       POPC     H4Y      HAL2     0.900000E-01   1.00800           0
      4210 MEMB     32       POPC     C35      CTL2    -0.180000       12.0110           0
      4211 MEMB     32       POPC     H5X      HAL2     0.900000E-01   1.00800           0
      4212 MEMB     32       POPC     H5Y      HAL2     0.900000E-01   1.00800           0
      4213 MEMB     32       POPC     C36      CTL2    -0.180000       12.0110           0
      4214 MEMB     32       POPC     H6X      HAL2     0.900000E-01   1.00800           0
      4215 MEMB     32       POPC     H6Y      HAL2     0.900000E-01   1.00800           0
      4216 MEMB     32       POPC     C37      CTL2    -0.180000       12.0110           0
      4217 MEMB     32       POPC     H7X      HAL2     0.900000E-01   1.00800           0
      4218 MEMB     32       POPC     H7Y      HAL2     0.900000E-01   1.00800           0
      4219 MEMB     32       POPC     C38      CTL2    -0.180000       12.0110           0
      4220 MEMB     32       POPC     H8X      HAL2     0.900000E-01   1.00800           0
      4221 MEMB     32       POPC     H8Y      HAL2     0.900000E-01   1.00800           0
      4222 MEMB     32       POPC     C39      CTL2    -0.180000       12.0110           0
      4223 MEMB     32       POPC     H9X      HAL2     0.900000E-01   1.00800           0
      4224 MEMB     32       POPC     H9Y      HAL2     0.900000E-01   1.00800           0
      4225 MEMB     32       POPC     C310     CTL2    -0.180000       12.0110           0
      4226 MEMB     32       POPC     H10X     HAL2     0.900000E-01   1.00800           0
      4227 MEMB     32       POPC     H10Y     HAL2     0.900000E-01   1.00800           0
      4228 MEMB     32       POPC     C311     CTL2    -0.180000       12.0110           0
      4229 MEMB     32       POPC     H11X     HAL2     0.900000E-01   1.00800           0
      4230 MEMB     32       POPC     H11Y     HAL2     0.900000E-01   1.00800           0
      4231 MEMB     32       POPC     C312     CTL2    -0.180000       12.0110           0
      4232 MEMB     32       POPC     H12X     HAL2     0.900000E-01   1.00800           0
      4233 MEMB     32       POPC     H12Y     HAL2     0.900000E-01   1.00800           0
      4234 MEMB     32       POPC     C313     CTL2    -0.180000       12.0110           0
      4235 MEMB     32       POPC     H13X     HAL2     0.900000E-01   1.00800           0
      4236 MEMB     32       POPC     H13Y     HAL2     0.900000E-01   1.00800           0
      4237 MEMB     32       POPC     C314     CTL2    -0.180000       12.0110           0
      4238 MEMB     32       POPC     H14X     HAL2     0.900000E-01   1.00800           0
      4239 MEMB     32       POPC     H14Y     HAL2     0.900000E-01   1.00800           0
      4240 MEMB     32       POPC     C315     CTL2    -0.180000       12.0110           0
      4241 MEMB     32       POPC     H15X     HAL2     0.900000E-01   1.00800           0
      4242 MEMB     32       POPC     H15Y     HAL2     0.900000E-01   1.00800           0
      4243 MEMB     32       POPC     C316     CTL3    -0.270000       12.0110           0
      4244 MEMB     32       POPC     H16X     HAL3     0.900000E-01   1.00800           0
      4245 MEMB     32       POPC     H16Y     HAL3     0.900000E-01   1.00800           0
      4246 MEMB     32       POPC     H16Z     HAL3     0.900000E-01   1.00800           0
      4247 MEMB     33       POPC     N        NTL     -0.600000       14.0070           0
      4248 MEMB     33       POPC     C12      CTL2    -0.100000       12.0110           0
      4249 MEMB     33       POPC     H12A     HL       0.250000       1.00800           0
      4250 MEMB     33       POPC     H12B     HL       0.250000       1.00800           0
      4251 MEMB     33       POPC     C13      CTL5    -0.350000       12.0110           0
      4252 MEMB     33       POPC     H13A     HL       0.250000       1.00800           0
      4253 MEMB     33       POPC     H13B     HL       0.250000       1.00800           0
      4254 MEMB     33       POPC     H13C     HL       0.250000       1.00800           0
      4255 MEMB     33       POPC     C14      CTL5    -0.350000       12.0110           0
      4256 MEMB     33       POPC     H14A     HL       0.250000       1.00800           0
      4257 MEMB     33       POPC     H14B     HL       0.250000       1.00800           0
      4258 MEMB     33       POPC     H14C     HL       0.250000       1.00800           0
      4259 MEMB     33       POPC     C15      CTL5    -0.350000       12.0110           0
      4260 MEMB     33       POPC     H15A     HL       0.250000       1.00800           0
      4261 MEMB     33       POPC     H15B     HL       0.250000       1.00800           0
      4262 MEMB     33       POPC     H15C     HL       0.250000       1.00800           0
      4263 MEMB     33       POPC     C11      CTL2    -0.800000E-01   12.0110           0
      4264 MEMB     33       POPC     H11A     HAL2     0.900000E-01   1.00800           0
      4265 MEMB     33       POPC     H11B     HAL2     0.900000E-01   1.00800           0
      4266 MEMB     33       POPC     P        PL        1.50000       30.9740           0
      4267 MEMB     33       POPC     O13      O2L     -0.780000       15.9994           0
      4268 MEMB     33       POPC     O14      O2L     -0.780000       15.9994           0
      4269 MEMB     33       POPC     O12      OSLP    -0.570000       15.9994           0
      4270 MEMB     33       POPC     O11      OSLP    -0.570000       15.9994           0
      4271 MEMB     33       POPC     C1       CTL2    -0.800000E-01   12.0110           0
      4272 MEMB     33       POPC     HA       HAL2     0.900000E-01   1.00800           0
      4273 MEMB     33       POPC     HB       HAL2     0.900000E-01   1.00800           0
      4274 MEMB     33       POPC     C2       CTL1     0.170000       12.0110           0
      4275 MEMB     33       POPC     HS       HAL1     0.900000E-01   1.00800           0
      4276 MEMB     33       POPC     O21      OSL     -0.490000       15.9994           0
      4277 MEMB     33       POPC     C21      CL       0.900000       12.0110           0
      4278 MEMB     33       POPC     O22      OBL     -0.630000       15.9994           0
      4279 MEMB     33       POPC     C22      CTL2    -0.220000       12.0110           0
      4280 MEMB     33       POPC     H2R      HAL2     0.900000E-01   1.00800           0
      4281 MEMB     33       POPC     H2S      HAL2     0.900000E-01   1.00800           0
      4282 MEMB     33       POPC     C3       CTL2     0.800000E-01   12.0110           0
      4283 MEMB     33       POPC     HX       HAL2     0.900000E-01   1.00800           0
      4284 MEMB     33       POPC     HY       HAL2     0.900000E-01   1.00800           0
      4285 MEMB     33       POPC     O31      OSL     -0.490000       15.9994           0
      4286 MEMB     33       POPC     C31      CL       0.900000       12.0110           0
      4287 MEMB     33       POPC     O32      OBL     -0.630000       15.9994           0
      4288 MEMB     33       POPC     C32      CTL2    -0.220000       12.0110           0
      4289 MEMB     33       POPC     H2X      HAL2     0.900000E-01   1.00800           0
      4290 MEMB     33       POPC     H2Y      HAL2     0.900000E-01   1.00800           0
      4291 MEMB     33       POPC     C23      CTL2    -0.180000       12.0110           0
      4292 MEMB     33       POPC     H3R      HAL2     0.900000E-01   1.00800           0
      4293 MEMB     33       POPC     H3S      HAL2     0.900000E-01   1.00800           0
      4294 MEMB     33       POPC     C24      CTL2    -0.180000       12.0110           0
      4295 MEMB     33       POPC     H4R      HAL2     0.900000E-01   1.00800           0
      4296 MEMB     33       POPC     H4S      HAL2     0.900000E-01   1.00800           0
      4297 MEMB     33       POPC     C25      CTL2    -0.180000       12.0110           0
      4298 MEMB     33       POPC     H5R      HAL2     0.900000E-01   1.00800           0
      4299 MEMB     33       POPC     H5S      HAL2     0.900000E-01   1.00800           0
      4300 MEMB     33       POPC     C26      CTL2    -0.180000       12.0110           0
      4301 MEMB     33       POPC     H6R      HAL2     0.900000E-01   1.00800           0
      4302 MEMB     33       POPC     H6S      HAL2     0.900000E-01   1.00800           0
      4303 MEMB     33       POPC     C27      CTL2    -0.180000       12.0110           0
      4304 MEMB     33       POPC     H7R      HAL2     0.900000E-01   1.00800           0
      4305 MEMB     33       POPC     H7S      HAL2     0.900000E-01   1.00800           0
      4306 MEMB     33       POPC     C28      CTL2    -0.180000       12.0110           0
      4307 MEMB     33       POPC     H8R      HAL2     0.900000E-01   1.00800           0
      4308 MEMB     33       POPC     H8S      HAL2     0.900000E-01   1.00800           0
      4309 MEMB     33       POPC     C29      CEL1    -0.150000       12.0110           0
      4310 MEMB     33       POPC     H91      HEL1     0.150000       1.00800           0
      4311 MEMB     33       POPC     C210     CEL1    -0.150000       12.0110           0
      4312 MEMB     33       POPC     H101     HEL1     0.150000       1.00800           0
      4313 MEMB     33       POPC     C211     CTL2    -0.180000       12.0110           0
      4314 MEMB     33       POPC     H11R     HAL2     0.900000E-01   1.00800           0
      4315 MEMB     33       POPC     H11S     HAL2     0.900000E-01   1.00800           0
      4316 MEMB     33       POPC     C212     CTL2    -0.180000       12.0110           0
      4317 MEMB     33       POPC     H12R     HAL2     0.900000E-01   1.00800           0
      4318 MEMB     33       POPC     H12S     HAL2     0.900000E-01   1.00800           0
      4319 MEMB     33       POPC     C213     CTL2    -0.180000       12.0110           0
      4320 MEMB     33       POPC     H13R     HAL2     0.900000E-01   1.00800           0
      4321 MEMB     33       POPC     H13S     HAL2     0.900000E-01   1.00800           0
      4322 MEMB     33       POPC     C214     CTL2    -0.180000       12.0110           0
      4323 MEMB     33       POPC     H14R     HAL2     0.900000E-01   1.00800           0
      4324 MEMB     33       POPC     H14S     HAL2     0.900000E-01   1.00800           0
      4325 MEMB     33       POPC     C215     CTL2    -0.180000       12.0110           0
      4326 MEMB     33       POPC     H15R     HAL2     0.900000E-01   1.00800           0
      4327 MEMB     33       POPC     H15S     HAL2     0.900000E-01   1.00800           0
      4328 MEMB     33       POPC     C216     CTL2    -0.180000       12.0110           0
      4329 MEMB     33       POPC     H16R     HAL2     0.900000E-01   1.00800           0
      4330 MEMB     33       POPC     H16S     HAL2     0.900000E-01   1.00800           0
      4331 MEMB     33       POPC     C217     CTL2    -0.180000       12.0110           0
      4332 MEMB     33       POPC     H17R     HAL2     0.900000E-01   1.00800           0
      4333 MEMB     33       POPC     H17S     HAL2     0.900000E-01   1.00800           0
      4334 MEMB     33       POPC     C218     CTL3    -0.270000       12.0110           0
      4335 MEMB     33       POPC     H18R     HAL3     0.900000E-01   1.00800           0
      4336 MEMB     33       POPC     H18S     HAL3     0.900000E-01   1.00800           0
      4337 MEMB     33       POPC     H18T     HAL3     0.900000E-01   1.00800           0
      4338 MEMB     33       POPC     C33      CTL2    -0.180000       12.0110           0
      4339 MEMB     33       POPC     H3X      HAL2     0.900000E-01   1.00800           0
      4340 MEMB     33       POPC     H3Y      HAL2     0.900000E-01   1.00800           0
      4341 MEMB     33       POPC     C34      CTL2    -0.180000       12.0110           0
      4342 MEMB     33       POPC     H4X      HAL2     0.900000E-01   1.00800           0
      4343 MEMB     33       POPC     H4Y      HAL2     0.900000E-01   1.00800           0
      4344 MEMB     33       POPC     C35      CTL2    -0.180000       12.0110           0
      4345 MEMB     33       POPC     H5X      HAL2     0.900000E-01   1.00800           0
      4346 MEMB     33       POPC     H5Y      HAL2     0.900000E-01   1.00800           0
      4347 MEMB     33       POPC     C36      CTL2    -0.180000       12.0110           0
      4348 MEMB     33       POPC     H6X      HAL2     0.900000E-01   1.00800           0
      4349 MEMB     33       POPC     H6Y      HAL2     0.900000E-01   1.00800           0
      4350 MEMB     33       POPC     C37      CTL2    -0.180000       12.0110           0
      4351 MEMB     33       POPC     H7X      HAL2     0.900000E-01   1.00800           0
      4352 MEMB     33       POPC     H7Y      HAL2     0.900000E-01   1.00800           0
      4353 MEMB     33       POPC     C38      CTL2    -0.180000       12.0110           0
      4354 MEMB     33       POPC     H8X      HAL2     0.900000E-01   1.00800           0
      4355 MEMB     33       POPC     H8Y      HAL2     0.900000E-01   1.00800           0
      4356 MEMB     33       POPC     C39      CTL2    -0.180000       12.0110           0
      4357 MEMB     33       POPC     H9X      HAL2     0.900000E-01   1.00800           0
      4358 MEMB     33       POPC     H9Y      HAL2     0.900000E-01   1.00800           0
      4359 MEMB     33       POPC     C310     CTL2    -0.180000       12.0110           0
      4360 MEMB     33       POPC     H10X     HAL2     0.900000E-01   1.00800           0
      4361 MEMB     33       POPC     H10Y     HAL2     0.900000E-01   1.00800           0
      4362 MEMB     33       POPC     C311     CTL2    -0.180000       12.0110           0
      4363 MEMB     33       POPC     H11X     HAL2     0.900000E-01   1.00800           0
      4364 MEMB     33       POPC     H11Y     HAL2     0.900000E-01   1.00800           0
      4365 MEMB     33       POPC     C312     CTL2    -0.180000       12.0110           0
      4366 MEMB     33       POPC     H12X     HAL2     0.900000E-01   1.00800           0
      4367 MEMB     33       POPC     H12Y     HAL2     0.900000E-01   1.00800           0
      4368 MEMB     33       POPC     C313     CTL2    -0.180000       12.0110           0
      4369 MEMB     33       POPC     H13X     HAL2     0.900000E-01   1.00800           0
      4370 MEMB     33       POPC     H13Y     HAL2     0.900000E-01   1.00800           0
      4371 MEMB     33       POPC     C314     CTL2    -0.180000       12.0110           0
      4372 MEMB     33       POPC     H14X     HAL2     0.900000E-01   1.00800           0
      4373 MEMB     33       POPC     H14Y     HAL2     0.900000E-01   1.00800           0
      4374 MEMB     33       POPC     C315     CTL2    -0.180000       12.0110           0
      4375 MEMB     33       POPC     H15X     HAL2     0.900000E-01   1.00800           0
      4376 MEMB     33       POPC     H15Y     HAL2     0.900000E-01   1.00800           0
      4377 MEMB     33       POPC     C316     CTL3    -0.270000       12.0110           0
      4378 MEMB     33       POPC     H16X     HAL3     0.900000E-01   1.00800           0
      4379 MEMB     33       POPC     H16Y     HAL3     0.900000E-01   1.00800           0
      4380 MEMB     33       POPC     H16Z     HAL3     0.900000E-01   1.00800           0
      4381 MEMB     34       POPC     N        NTL     -0.600000       14.0070           0
      4382 MEMB     34       POPC     C12      CTL2    -0.100000       12.0110           0
      4383 MEMB     34       POPC     H12A     HL       0.250000       1.00800           0
      4384 MEMB     34       POPC     H12B     HL       0.250000       1.00800           0
      4385 MEMB     34       POPC     C13      CTL5    -0.350000       12.0110           0
      4386 MEMB     34       POPC     H13A     HL       0.250000       1.00800           0
      4387 MEMB     34       POPC     H13B     HL       0.250000       1.00800           0
      4388 MEMB     34       POPC     H13C     HL       0.250000       1.00800           0
      4389 MEMB     34       POPC     C14      CTL5    -0.350000       12.0110           0
      4390 MEMB     34       POPC     H14A     HL       0.250000       1.00800           0
      4391 MEMB     34       POPC     H14B     HL       0.250000       1.00800           0
      4392 MEMB     34       POPC     H14C     HL       0.250000       1.00800           0
      4393 MEMB     34       POPC     C15      CTL5    -0.350000       12.0110           0
      4394 MEMB     34       POPC     H15A     HL       0.250000       1.00800           0
      4395 MEMB     34       POPC     H15B     HL       0.250000       1.00800           0
      4396 MEMB     34       POPC     H15C     HL       0.250000       1.00800           0
      4397 MEMB     34       POPC     C11      CTL2    -0.800000E-01   12.0110           0
      4398 MEMB     34       POPC     H11A     HAL2     0.900000E-01   1.00800           0
      4399 MEMB     34       POPC     H11B     HAL2     0.900000E-01   1.00800           0
      4400 MEMB     34       POPC     P        PL        1.50000       30.9740           0
      4401 MEMB     34       POPC     O13      O2L     -0.780000       15.9994           0
      4402 MEMB     34       POPC     O14      O2L     -0.780000       15.9994           0
      4403 MEMB     34       POPC     O12      OSLP    -0.570000       15.9994           0
      4404 MEMB     34       POPC     O11      OSLP    -0.570000       15.9994           0
      4405 MEMB     34       POPC     C1       CTL2    -0.800000E-01   12.0110           0
      4406 MEMB     34       POPC     HA       HAL2     0.900000E-01   1.00800           0
      4407 MEMB     34       POPC     HB       HAL2     0.900000E-01   1.00800           0
      4408 MEMB     34       POPC     C2       CTL1     0.170000       12.0110           0
      4409 MEMB     34       POPC     HS       HAL1     0.900000E-01   1.00800           0
      4410 MEMB     34       POPC     O21      OSL     -0.490000       15.9994           0
      4411 MEMB     34       POPC     C21      CL       0.900000       12.0110           0
      4412 MEMB     34       POPC     O22      OBL     -0.630000       15.9994           0
      4413 MEMB     34       POPC     C22      CTL2    -0.220000       12.0110           0
      4414 MEMB     34       POPC     H2R      HAL2     0.900000E-01   1.00800           0
      4415 MEMB     34       POPC     H2S      HAL2     0.900000E-01   1.00800           0
      4416 MEMB     34       POPC     C3       CTL2     0.800000E-01   12.0110           0
      4417 MEMB     34       POPC     HX       HAL2     0.900000E-01   1.00800           0
      4418 MEMB     34       POPC     HY       HAL2     0.900000E-01   1.00800           0
      4419 MEMB     34       POPC     O31      OSL     -0.490000       15.9994           0
      4420 MEMB     34       POPC     C31      CL       0.900000       12.0110           0
      4421 MEMB     34       POPC     O32      OBL     -0.630000       15.9994           0
      4422 MEMB     34       POPC     C32      CTL2    -0.220000       12.0110           0
      4423 MEMB     34       POPC     H2X      HAL2     0.900000E-01   1.00800           0
      4424 MEMB     34       POPC     H2Y      HAL2     0.900000E-01   1.00800           0
      4425 MEMB     34       POPC     C23      CTL2    -0.180000       12.0110           0
      4426 MEMB     34       POPC     H3R      HAL2     0.900000E-01   1.00800           0
      4427 MEMB     34       POPC     H3S      HAL2     0.900000E-01   1.00800           0
      4428 MEMB     34       POPC     C24      CTL2    -0.180000       12.0110           0
      4429 MEMB     34       POPC     H4R      HAL2     0.900000E-01   1.00800           0
      4430 MEMB     34       POPC     H4S      HAL2     0.900000E-01   1.00800           0
      4431 MEMB     34       POPC     C25      CTL2    -0.180000       12.0110           0
      4432 MEMB     34       POPC     H5R      HAL2     0.900000E-01   1.00800           0
      4433 MEMB     34       POPC     H5S      HAL2     0.900000E-01   1.00800           0
      4434 MEMB     34       POPC     C26      CTL2    -0.180000       12.0110           0
      4435 MEMB     34       POPC     H6R      HAL2     0.900000E-01   1.00800           0
      4436 MEMB     34       POPC     H6S      HAL2     0.900000E-01   1.00800           0
      4437 MEMB     34       POPC     C27      CTL2    -0.180000       12.0110           0
      4438 MEMB     34       POPC     H7R      HAL2     0.900000E-01   1.00800           0
      4439 MEMB     34       POPC     H7S      HAL2     0.900000E-01   1.00800           0
      4440 MEMB     34       POPC     C28      CTL2    -0.180000       12.0110           0
      4441 MEMB     34       POPC     H8R      HAL2     0.900000E-01   1.00800           0
      4442 MEMB     34       POPC     H8S      HAL2     0.900000E-01   1.00800           0
      4443 MEMB     34       POPC     C29      CEL1    -0.150000       12.0110           0
      4444 MEMB     34       POPC     H91      HEL1     0.150000       1.00800           0
      4445 MEMB     34       POPC     C210     CEL1    -0.150000       12.0110           0
      4446 MEMB     34       POPC     H101     HEL1     0.150000       1.00800           0
      4447 MEMB     34       POPC     C211     CTL2    -0.180000       12.0110           0
      4448 MEMB     34       POPC     H11R     HAL2     0.900000E-01   1.00800           0
      4449 MEMB     34       POPC     H11S     HAL2     0.900000E-01   1.00800           0
      4450 MEMB     34       POPC     C212     CTL2    -0.180000       12.0110           0
      4451 MEMB     34       POPC     H12R     HAL2     0.900000E-01   1.00800           0
      4452 MEMB     34       POPC     H12S     HAL2     0.900000E-01   1.00800           0
      4453 MEMB     34       POPC     C213     CTL2    -0.180000       12.0110           0
      4454 MEMB     34       POPC     H13R     HAL2     0.900000E-01   1.00800           0
      4455 MEMB     34       POPC     H13S     HAL2     0.900000E-01   1.00800           0
      4456 MEMB     34       POPC     C214     CTL2    -0.180000       12.0110           0
      4457 MEMB     34       POPC     H14R     HAL2     0.900000E-01   1.00800           0
      4458 MEMB     34       POPC     H14S     HAL2     0.900000E-01   1.00800           0
      4459 MEMB     34       POPC     C215     CTL2    -0.180000       12.0110           0
      4460 MEMB     34       POPC     H15R     HAL2     0.900000E-01   1.00800           0
      4461 MEMB     34       POPC     H15S     HAL2     0.900000E-01   1.00800           0
      4462 MEMB     34       POPC     C216     CTL2    -0.180000       12.0110           0
      4463 MEMB     34       POPC     H16R     HAL2     0.900000E-01   1.00800           0
      4464 MEMB     34       POPC     H16S     HAL2     0.900000E-01   1.00800           0
      4465 MEMB     34       POPC     C217     CTL2    -0.180000       12.0110           0
      4466 MEMB     34       POPC     H17R     HAL2     0.900000E-01   1.00800           0
      4467 MEMB     34       POPC     H17S     HAL2     0.900000E-01   1.00800           0
      4468 MEMB     34       POPC     C218     CTL3    -0.270000       12.0110           0
      4469 MEMB     34       POPC     H18R     HAL3     0.900000E-01   1.00800           0
      4470 MEMB     34       POPC     H18S     HAL3     0.900000E-01   1.00800           0
      4471 MEMB     34       POPC     H18T     HAL3     0.900000E-01   1.00800           0
      4472 MEMB     34       POPC     C33      CTL2    -0.180000       12.0110           0
      4473 MEMB     34       POPC     H3X      HAL2     0.900000E-01   1.00800           0
      4474 MEMB     34       POPC     H3Y      HAL2     0.900000E-01   1.00800           0
      4475 MEMB     34       POPC     C34      CTL2    -0.180000       12.0110           0
      4476 MEMB     34       POPC     H4X      HAL2     0.900000E-01   1.00800           0
      4477 MEMB     34       POPC     H4Y      HAL2     0.900000E-01   1.00800           0
      4478 MEMB     34       POPC     C35      CTL2    -0.180000       12.0110           0
      4479 MEMB     34       POPC     H5X      HAL2     0.900000E-01   1.00800           0
      4480 MEMB     34       POPC     H5Y      HAL2     0.900000E-01   1.00800           0
      4481 MEMB     34       POPC     C36      CTL2    -0.180000       12.0110           0
      4482 MEMB     34       POPC     H6X      HAL2     0.900000E-01   1.00800           0
      4483 MEMB     34       POPC     H6Y      HAL2     0.900000E-01   1.00800           0
      4484 MEMB     34       POPC     C37      CTL2    -0.180000       12.0110           0
      4485 MEMB     34       POPC     H7X      HAL2     0.900000E-01   1.00800           0
      4486 MEMB     34       POPC     H7Y      HAL2     0.900000E-01   1.00800           0
      4487 MEMB     34       POPC     C38      CTL2    -0.180000       12.0110           0
      4488 MEMB     34       POPC     H8X      HAL2     0.900000E-01   1.00800           0
      4489 MEMB     34       POPC     H8Y      HAL2     0.900000E-01   1.00800           0
      4490 MEMB     34       POPC     C39      CTL2    -0.180000       12.0110           0
      4491 MEMB     34       POPC     H9X      HAL2     0.900000E-01   1.00800           0
      4492 MEMB     34       POPC     H9Y      HAL2     0.900000E-01   1.00800           0
      4493 MEMB     34       POPC     C310     CTL2    -0.180000       12.0110           0
      4494 MEMB     34       POPC     H10X     HAL2     0.900000E-01   1.00800           0
      4495 MEMB     34       POPC     H10Y     HAL2     0.900000E-01   1.00800           0
      4496 MEMB     34       POPC     C311     CTL2    -0.180000       12.0110           0
      4497 MEMB     34       POPC     H11X     HAL2     0.900000E-01   1.00800           0
      4498 MEMB     34       POPC     H11Y     HAL2     0.900000E-01   1.00800           0
      4499 MEMB     34       POPC     C312     CTL2    -0.180000       12.0110           0
      4500 MEMB     34       POPC     H12X     HAL2     0.900000E-01   1.00800           0
      4501 MEMB     34       POPC     H12Y     HAL2     0.900000E-01   1.00800           0
      4502 MEMB     34       POPC     C313     CTL2    -0.180000       12.0110           0
      4503 MEMB     34       POPC     H13X     HAL2     0.900000E-01   1.00800           0
      4504 MEMB     34       POPC     H13Y     HAL2     0.900000E-01   1.00800           0
      4505 MEMB     34       POPC     C314     CTL2    -0.180000       12.0110           0
      4506 MEMB     34       POPC     H14X     HAL2     0.900000E-01   1.00800           0
      4507 MEMB     34       POPC     H14Y     HAL2     0.900000E-01   1.00800           0
      4508 MEMB     34       POPC     C315     CTL2    -0.180000       12.0110           0
      4509 MEMB     34       POPC     H15X     HAL2     0.900000E-01   1.00800           0
      4510 MEMB     34       POPC     H15Y     HAL2     0.900000E-01   1.00800           0
      4511 MEMB     34       POPC     C316     CTL3    -0.270000       12.0110           0
      4512 MEMB     34       POPC     H16X     HAL3     0.900000E-01   1.00800           0
      4513 MEMB     34       POPC     H16Y     HAL3     0.900000E-01   1.00800           0
      4514 MEMB     34       POPC     H16Z     HAL3     0.900000E-01   1.00800           0
      4515 MEMB     35       POPC     N        NTL     -0.600000       14.0070           0
      4516 MEMB     35       POPC     C12      CTL2    -0.100000       12.0110           0
      4517 MEMB     35       POPC     H12A     HL       0.250000       1.00800           0
      4518 MEMB     35       POPC     H12B     HL       0.250000       1.00800           0
      4519 MEMB     35       POPC     C13      CTL5    -0.350000       12.0110           0
      4520 MEMB     35       POPC     H13A     HL       0.250000       1.00800           0
      4521 MEMB     35       POPC     H13B     HL       0.250000       1.00800           0
      4522 MEMB     35       POPC     H13C     HL       0.250000       1.00800           0
      4523 MEMB     35       POPC     C14      CTL5    -0.350000       12.0110           0
      4524 MEMB     35       POPC     H14A     HL       0.250000       1.00800           0
      4525 MEMB     35       POPC     H14B     HL       0.250000       1.00800           0
      4526 MEMB     35       POPC     H14C     HL       0.250000       1.00800           0
      4527 MEMB     35       POPC     C15      CTL5    -0.350000       12.0110           0
      4528 MEMB     35       POPC     H15A     HL       0.250000       1.00800           0
      4529 MEMB     35       POPC     H15B     HL       0.250000       1.00800           0
      4530 MEMB     35       POPC     H15C     HL       0.250000       1.00800           0
      4531 MEMB     35       POPC     C11      CTL2    -0.800000E-01   12.0110           0
      4532 MEMB     35       POPC     H11A     HAL2     0.900000E-01   1.00800           0
      4533 MEMB     35       POPC     H11B     HAL2     0.900000E-01   1.00800           0
      4534 MEMB     35       POPC     P        PL        1.50000       30.9740           0
      4535 MEMB     35       POPC     O13      O2L     -0.780000       15.9994           0
      4536 MEMB     35       POPC     O14      O2L     -0.780000       15.9994           0
      4537 MEMB     35       POPC     O12      OSLP    -0.570000       15.9994           0
      4538 MEMB     35       POPC     O11      OSLP    -0.570000       15.9994           0
      4539 MEMB     35       POPC     C1       CTL2    -0.800000E-01   12.0110           0
      4540 MEMB     35       POPC     HA       HAL2     0.900000E-01   1.00800           0
      4541 MEMB     35       POPC     HB       HAL2     0.900000E-01   1.00800           0
      4542 MEMB     35       POPC     C2       CTL1     0.170000       12.0110           0
      4543 MEMB     35       POPC     HS       HAL1     0.900000E-01   1.00800           0
      4544 MEMB     35       POPC     O21      OSL     -0.490000       15.9994           0
      4545 MEMB     35       POPC     C21      CL       0.900000       12.0110           0
      4546 MEMB     35       POPC     O22      OBL     -0.630000       15.9994           0
      4547 MEMB     35       POPC     C22      CTL2    -0.220000       12.0110           0
      4548 MEMB     35       POPC     H2R      HAL2     0.900000E-01   1.00800           0
      4549 MEMB     35       POPC     H2S      HAL2     0.900000E-01   1.00800           0
      4550 MEMB     35       POPC     C3       CTL2     0.800000E-01   12.0110           0
      4551 MEMB     35       POPC     HX       HAL2     0.900000E-01   1.00800           0
      4552 MEMB     35       POPC     HY       HAL2     0.900000E-01   1.00800           0
      4553 MEMB     35       POPC     O31      OSL     -0.490000       15.9994           0
      4554 MEMB     35       POPC     C31      CL       0.900000       12.0110           0
      4555 MEMB     35       POPC     O32      OBL     -0.630000       15.9994           0
      4556 MEMB     35       POPC     C32      CTL2    -0.220000       12.0110           0
      4557 MEMB     35       POPC     H2X      HAL2     0.900000E-01   1.00800           0
      4558 MEMB     35       POPC     H2Y      HAL2     0.900000E-01   1.00800           0
      4559 MEMB     35       POPC     C23      CTL2    -0.180000       12.0110           0
      4560 MEMB     35       POPC     H3R      HAL2     0.900000E-01   1.00800           0
      4561 MEMB     35       POPC     H3S      HAL2     0.900000E-01   1.00800           0
      4562 MEMB     35       POPC     C24      CTL2    -0.180000       12.0110           0
      4563 MEMB     35       POPC     H4R      HAL2     0.900000E-01   1.00800           0
      4564 MEMB     35       POPC     H4S      HAL2     0.900000E-01   1.00800           0
      4565 MEMB     35       POPC     C25      CTL2    -0.180000       12.0110           0
      4566 MEMB     35       POPC     H5R      HAL2     0.900000E-01   1.00800           0
      4567 MEMB     35       POPC     H5S      HAL2     0.900000E-01   1.00800           0
      4568 MEMB     35       POPC     C26      CTL2    -0.180000       12.0110           0
      4569 MEMB     35       POPC     H6R      HAL2     0.900000E-01   1.00800           0
      4570 MEMB     35       POPC     H6S      HAL2     0.900000E-01   1.00800           0
      4571 MEMB     35       POPC     C27      CTL2    -0.180000       12.0110           0
      4572 MEMB     35       POPC     H7R      HAL2     0.900000E-01   1.00800           0
      4573 MEMB     35       POPC     H7S      HAL2     0.900000E-01   1.00800           0
      4574 MEMB     35       POPC     C28      CTL2    -0.180000       12.0110           0
      4575 MEMB     35       POPC     H8R      HAL2     0.900000E-01   1.00800           0
      4576 MEMB     35       POPC     H8S      HAL2     0.900000E-01   1.00800           0
      4577 MEMB     35       POPC     C29      CEL1    -0.150000       12.0110           0
      4578 MEMB     35       POPC     H91      HEL1     0.150000       1.00800           0
      4579 MEMB     35       POPC     C210     CEL1    -0.150000       12.0110           0
      4580 MEMB     35       POPC     H101     HEL1     0.150000       1.00800           0
      4581 MEMB     35       POPC     C211     CTL2    -0.180000       12.0110           0
      4582 MEMB     35       POPC     H11R     HAL2     0.900000E-01   1.00800           0
      4583 MEMB     35       POPC     H11S     HAL2     0.900000E-01   1.00800           0
      4584 MEMB     35       POPC     C212     CTL2    -0.180000       12.0110           0
      4585 MEMB     35       POPC     H12R     HAL2     0.900000E-01   1.00800           0
      4586 MEMB     35       POPC     H12S     HAL2     0.900000E-01   1.00800           0
      4587 MEMB     35       POPC     C213     CTL2    -0.180000       12.0110           0
      4588 MEMB     35       POPC     H13R     HAL2     0.900000E-01   1.00800           0
      4589 MEMB     35       POPC     H13S     HAL2     0.900000E-01   1.00800           0
      4590 MEMB     35       POPC     C214     CTL2    -0.180000       12.0110           0
      4591 MEMB     35       POPC     H14R     HAL2     0.900000E-01   1.00800           0
      4592 MEMB     35       POPC     H14S     HAL2     0.900000E-01   1.00800           0
      4593 MEMB     35       POPC     C215     CTL2    -0.180000       12.0110           0
      4594 MEMB     35       POPC     H15R     HAL2     0.900000E-01   1.00800           0
      4595 MEMB     35       POPC     H15S     HAL2     0.900000E-01   1.00800           0
      4596 MEMB     35       POPC     C216     CTL2    -0.180000       12.0110           0
      4597 MEMB     35       POPC     H16R     HAL2     0.900000E-01   1.00800           0
      4598 MEMB     35       POPC     H16S     HAL2     0.900000E-01   1.00800           0
      4599 MEMB     35       POPC     C217     CTL2    -0.180000       12.0110           0
      4600 MEMB     35       POPC     H17R     HAL2     0.900000E-01   1.00800           0
      4601 MEMB     35       POPC     H17S     HAL2     0.900000E-01   1.00800           0
      4602 MEMB     35       POPC     C218     CTL3    -0.270000       12.0110           0
      4603 MEMB     35       POPC     H18R     HAL3     0.900000E-01   1.00800           0
      4604 MEMB     35       POPC     H18S     HAL3     0.900000E-01   1.00800           0
      4605 MEMB     35       POPC     H18T     HAL3     0.900000E-01   1.00800           0
      4606 MEMB     35       POPC     C33      CTL2    -0.180000       12.0110           0
      4607 MEMB     35       POPC     H3X      HAL2     0.900000E-01   1.00800           0
      4608 MEMB     35       POPC     H3Y      HAL2     0.900000E-01   1.00800           0
      4609 MEMB     35       POPC     C34      CTL2    -0.180000       12.0110           0
      4610 MEMB     35       POPC     H4X      HAL2     0.900000E-01   1.00800           0
      4611 MEMB     35       POPC     H4Y      HAL2     0.900000E-01   1.00800           0
      4612 MEMB     35       POPC     C35      CTL2    -0.180000       12.0110           0
      4613 MEMB     35       POPC     H5X      HAL2     0.900000E-01   1.00800           0
      4614 MEMB     35       POPC     H5Y      HAL2     0.900000E-01   1.00800           0
      4615 MEMB     35       POPC     C36      CTL2    -0.180000       12.0110           0
      4616 MEMB     35       POPC     H6X      HAL2     0.900000E-01   1.00800           0
      4617 MEMB     35       POPC     H6Y      HAL2     0.900000E-01   1.00800           0
      4618 MEMB     35       POPC     C37      CTL2    -0.180000       12.0110           0
      4619 MEMB     35       POPC     H7X      HAL2     0.900000E-01   1.00800           0
      4620 MEMB     35       POPC     H7Y      HAL2     0.900000E-01   1.00800           0
      4621 MEMB     35       POPC     C38      CTL2    -0.180000       12.0110           0
      4622 MEMB     35       POPC     H8X      HAL2     0.900000E-01   1.00800           0
      4623 MEMB     35       POPC     H8Y      HAL2     0.900000E-01   1.00800           0
      4624 MEMB     35       POPC     C39      CTL2    -0.180000       12.0110           0
      4625 MEMB     35       POPC     H9X      HAL2     0.900000E-01   1.00800           0
      4626 MEMB     35       POPC     H9Y      HAL2     0.900000E-01   1.00800           0
      4627 MEMB     35       POPC     C310     CTL2    -0.180000       12.0110           0
      4628 MEMB     35       POPC     H10X     HAL2     0.900000E-01   1.00800           0
      4629 MEMB     35       POPC     H10Y     HAL2     0.900000E-01   1.00800           0
      4630 MEMB     35       POPC     C311     CTL2    -0.180000       12.0110           0
      4631 MEMB     35       POPC     H11X     HAL2     0.900000E-01   1.00800           0
      4632 MEMB     35       POPC     H11Y     HAL2     0.900000E-01   1.00800           0
      4633 MEMB     35       POPC     C312     CTL2    -0.180000       12.0110           0
      4634 MEMB     35       POPC     H12X     HAL2     0.900000E-01   1.00800           0
      4635 MEMB     35       POPC     H12Y     HAL2     0.900000E-01   1.00800           0
      4636 MEMB     35       POPC     C313     CTL2    -0.180000       12.0110           0
      4637 MEMB     35       POPC     H13X     HAL2     0.900000E-01   1.00800           0
      4638 MEMB     35       POPC     H13Y     HAL2     0.900000E-01   1.00800           0
      4639 MEMB     35       POPC     C314     CTL2    -0.180000       12.0110           0
      4640 MEMB     35       POPC     H14X     HAL2     0.900000E-01   1.00800           0
      4641 MEMB     35       POPC     H14Y     HAL2     0.900000E-01   1.00800           0
      4642 MEMB     35       POPC     C315     CTL2    -0.180000       12.0110           0
      4643 MEMB     35       POPC     H15X     HAL2     0.900000E-01   1.00800           0
      4644 MEMB     35       POPC     H15Y     HAL2     0.900000E-01   1.00800           0
      4645 MEMB     35       POPC     C316     CTL3    -0.270000       12.0110           0
      4646 MEMB     35       POPC     H16X     HAL3     0.900000E-01   1.00800           0
      4647 MEMB     35       POPC     H16Y     HAL3     0.900000E-01   1.00800           0
      4648 MEMB     35       POPC     H16Z     HAL3     0.900000E-01   1.00800           0
      4649 MEMB     36       POPC     N        NTL     -0.600000       14.0070           0
      4650 MEMB     36       POPC     C12      CTL2    -0.100000       12.0110           0
      4651 MEMB     36       POPC     H12A     HL       0.250000       1.00800           0
      4652 MEMB     36       POPC     H12B     HL       0.250000       1.00800           0
      4653 MEMB     36       POPC     C13      CTL5    -0.350000       12.0110           0
      4654 MEMB     36       POPC     H13A     HL       0.250000       1.00800           0
      4655 MEMB     36       POPC     H13B     HL       0.250000       1.00800           0
      4656 MEMB     36       POPC     H13C     HL       0.250000       1.00800           0
      4657 MEMB     36       POPC     C14      CTL5    -0.350000       12.0110           0
      4658 MEMB     36       POPC     H14A     HL       0.250000       1.00800           0
      4659 MEMB     36       POPC     H14B     HL       0.250000       1.00800           0
      4660 MEMB     36       POPC     H14C     HL       0.250000       1.00800           0
      4661 MEMB     36       POPC     C15      CTL5    -0.350000       12.0110           0
      4662 MEMB     36       POPC     H15A     HL       0.250000       1.00800           0
      4663 MEMB     36       POPC     H15B     HL       0.250000       1.00800           0
      4664 MEMB     36       POPC     H15C     HL       0.250000       1.00800           0
      4665 MEMB     36       POPC     C11      CTL2    -0.800000E-01   12.0110           0
      4666 MEMB     36       POPC     H11A     HAL2     0.900000E-01   1.00800           0
      4667 MEMB     36       POPC     H11B     HAL2     0.900000E-01   1.00800           0
      4668 MEMB     36       POPC     P        PL        1.50000       30.9740           0
      4669 MEMB     36       POPC     O13      O2L     -0.780000       15.9994           0
      4670 MEMB     36       POPC     O14      O2L     -0.780000       15.9994           0
      4671 MEMB     36       POPC     O12      OSLP    -0.570000       15.9994           0
      4672 MEMB     36       POPC     O11      OSLP    -0.570000       15.9994           0
      4673 MEMB     36       POPC     C1       CTL2    -0.800000E-01   12.0110           0
      4674 MEMB     36       POPC     HA       HAL2     0.900000E-01   1.00800           0
      4675 MEMB     36       POPC     HB       HAL2     0.900000E-01   1.00800           0
      4676 MEMB     36       POPC     C2       CTL1     0.170000       12.0110           0
      4677 MEMB     36       POPC     HS       HAL1     0.900000E-01   1.00800           0
      4678 MEMB     36       POPC     O21      OSL     -0.490000       15.9994           0
      4679 MEMB     36       POPC     C21      CL       0.900000       12.0110           0
      4680 MEMB     36       POPC     O22      OBL     -0.630000       15.9994           0
      4681 MEMB     36       POPC     C22      CTL2    -0.220000       12.0110           0
      4682 MEMB     36       POPC     H2R      HAL2     0.900000E-01   1.00800           0
      4683 MEMB     36       POPC     H2S      HAL2     0.900000E-01   1.00800           0
      4684 MEMB     36       POPC     C3       CTL2     0.800000E-01   12.0110           0
      4685 MEMB     36       POPC     HX       HAL2     0.900000E-01   1.00800           0
      4686 MEMB     36       POPC     HY       HAL2     0.900000E-01   1.00800           0
      4687 MEMB     36       POPC     O31      OSL     -0.490000       15.9994           0
      4688 MEMB     36       POPC     C31      CL       0.900000       12.0110           0
      4689 MEMB     36       POPC     O32      OBL     -0.630000       15.9994           0
      4690 MEMB     36       POPC     C32      CTL2    -0.220000       12.0110           0
      4691 MEMB     36       POPC     H2X      HAL2     0.900000E-01   1.00800           0
      4692 MEMB     36       POPC     H2Y      HAL2     0.900000E-01   1.00800           0
      4693 MEMB     36       POPC     C23      CTL2    -0.180000       12.0110           0
      4694 MEMB     36       POPC     H3R      HAL2     0.900000E-01   1.00800           0
      4695 MEMB     36       POPC     H3S      HAL2     0.900000E-01   1.00800           0
      4696 MEMB     36       POPC     C24      CTL2    -0.180000       12.0110           0
      4697 MEMB     36       POPC     H4R      HAL2     0.900000E-01   1.00800           0
      4698 MEMB     36       POPC     H4S      HAL2     0.900000E-01   1.00800           0
      4699 MEMB     36       POPC     C25      CTL2    -0.180000       12.0110           0
      4700 MEMB     36       POPC     H5R      HAL2     0.900000E-01   1.00800           0
      4701 MEMB     36       POPC     H5S      HAL2     0.900000E-01   1.00800           0
      4702 MEMB     36       POPC     C26      CTL2    -0.180000       12.0110           0
      4703 MEMB     36       POPC     H6R      HAL2     0.900000E-01   1.00800           0
      4704 MEMB     36       POPC     H6S      HAL2     0.900000E-01   1.00800           0
      4705 MEMB     36       POPC     C27      CTL2    -0.180000       12.0110           0
      4706 MEMB     36       POPC     H7R      HAL2     0.900000E-01   1.00800           0
      4707 MEMB     36       POPC     H7S      HAL2     0.900000E-01   1.00800           0
      4708 MEMB     36       POPC     C28      CTL2    -0.180000       12.0110           0
      4709 MEMB     36       POPC     H8R      HAL2     0.900000E-01   1.00800           0
      4710 MEMB     36       POPC     H8S      HAL2     0.900000E-01   1.00800           0
      4711 MEMB     36       POPC     C29      CEL1    -0.150000       12.0110           0
      4712 MEMB     36       POPC     H91      HEL1     0.150000       1.00800           0
      4713 MEMB     36       POPC     C210     CEL1    -0.150000       12.0110           0
      4714 MEMB     36       POPC     H101     HEL1     0.150000       1.00800           0
      4715 MEMB     36       POPC     C211     CTL2    -0.180000       12.0110           0
      4716 MEMB     36       POPC     H11R     HAL2     0.900000E-01   1.00800           0
      4717 MEMB     36       POPC     H11S     HAL2     0.900000E-01   1.00800           0
      4718 MEMB     36       POPC     C212     CTL2    -0.180000       12.0110           0
      4719 MEMB     36       POPC     H12R     HAL2     0.900000E-01   1.00800           0
      4720 MEMB     36       POPC     H12S     HAL2     0.900000E-01   1.00800           0
      4721 MEMB     36       POPC     C213     CTL2    -0.180000       12.0110           0
      4722 MEMB     36       POPC     H13R     HAL2     0.900000E-01   1.00800           0
      4723 MEMB     36       POPC     H13S     HAL2     0.900000E-01   1.00800           0
      4724 MEMB     36       POPC     C214     CTL2    -0.180000       12.0110           0
      4725 MEMB     36       POPC     H14R     HAL2     0.900000E-01   1.00800           0
      4726 MEMB     36       POPC     H14S     HAL2     0.900000E-01   1.00800           0
      4727 MEMB     36       POPC     C215     CTL2    -0.180000       12.0110           0
      4728 MEMB     36       POPC     H15R     HAL2     0.900000E-01   1.00800           0
      4729 MEMB     36       POPC     H15S     HAL2     0.900000E-01   1.00800           0
      4730 MEMB     36       POPC     C216     CTL2    -0.180000       12.0110           0
      4731 MEMB     36       POPC     H16R     HAL2     0.900000E-01   1.00800           0
      4732 MEMB     36       POPC     H16S     HAL2     0.900000E-01   1.00800           0
      4733 MEMB     36       POPC     C217     CTL2    -0.180000       12.0110           0
      4734 MEMB     36       POPC     H17R     HAL2     0.900000E-01   1.00800           0
      4735 MEMB     36       POPC     H17S     HAL2     0.900000E-01   1.00800           0
      4736 MEMB     36       POPC     C218     CTL3    -0.270000       12.0110           0
      4737 MEMB     36       POPC     H18R     HAL3     0.900000E-01   1.00800           0
      4738 MEMB     36       POPC     H18S     HAL3     0.900000E-01   1.00800           0
      4739 MEMB     36       POPC     H18T     HAL3     0.900000E-01   1.00800           0
      4740 MEMB     36       POPC     C33      CTL2    -0.180000       12.0110           0
      4741 MEMB     36       POPC     H3X      HAL2     0.900000E-01   1.00800           0
      4742 MEMB     36       POPC     H3Y      HAL2     0.900000E-01   1.00800           0
      4743 MEMB     36       POPC     C34      CTL2    -0.180000       12.0110           0
      4744 MEMB     36       POPC     H4X      HAL2     0.900000E-01   1.00800           0
      4745 MEMB     36       POPC     H4Y      HAL2     0.900000E-01   1.00800           0
      4746 MEMB     36       POPC     C35      CTL2    -0.180000       12.0110           0
      4747 MEMB     36       POPC     H5X      HAL2     0.900000E-01   1.00800           0
      4748 MEMB     36       POPC     H5Y      HAL2     0.900000E-01   1.00800           0
      4749 MEMB     36       POPC     C36      CTL2    -0.180000       12.0110           0
      4750 MEMB     36       POPC     H6X      HAL2     0.900000E-01   1.00800           0
      4751 MEMB     36       POPC     H6Y      HAL2     0.900000E-01   1.00800           0
      4752 MEMB     36       POPC     C37      CTL2    -0.180000       12.0110           0
      4753 MEMB     36       POPC     H7X      HAL2     0.900000E-01   1.00800           0
      4754 MEMB     36       POPC     H7Y      HAL2     0.900000E-01   1.00800           0
      4755 MEMB     36       POPC     C38      CTL2    -0.180000       12.0110           0
      4756 MEMB     36       POPC     H8X      HAL2     0.900000E-01   1.00800           0
      4757 MEMB     36       POPC     H8Y      HAL2     0.900000E-01   1.00800           0
      4758 MEMB     36       POPC     C39      CTL2    -0.180000       12.0110           0
      4759 MEMB     36       POPC     H9X      HAL2     0.900000E-01   1.00800           0
      4760 MEMB     36       POPC     H9Y      HAL2     0.900000E-01   1.00800           0
      4761 MEMB     36       POPC     C310     CTL2    -0.180000       12.0110           0
      4762 MEMB     36       POPC     H10X     HAL2     0.900000E-01   1.00800           0
      4763 MEMB     36       POPC     H10Y     HAL2     0.900000E-01   1.00800           0
      4764 MEMB     36       POPC     C311     CTL2    -0.180000       12.0110           0
      4765 MEMB     36       POPC     H11X     HAL2     0.900000E-01   1.00800           0
      4766 MEMB     36       POPC     H11Y     HAL2     0.900000E-01   1.00800           0
      4767 MEMB     36       POPC     C312     CTL2    -0.180000       12.0110           0
      4768 MEMB     36       POPC     H12X     HAL2     0.900000E-01   1.00800           0
      4769 MEMB     36       POPC     H12Y     HAL2     0.900000E-01   1.00800           0
      4770 MEMB     36       POPC     C313     CTL2    -0.180000       12.0110           0
      4771 MEMB     36       POPC     H13X     HAL2     0.900000E-01   1.00800           0
      4772 MEMB     36       POPC     H13Y     HAL2     0.900000E-01   1.00800           0
      4773 MEMB     36       POPC     C314     CTL2    -0.180000       12.0110           0
      4774 MEMB     36       POPC     H14X     HAL2     0.900000E-01   1.00800           0
      4775 MEMB     36       POPC     H14Y     HAL2     0.900000E-01   1.00800           0
      4776 MEMB     36       POPC     C315     CTL2    -0.180000       12.0110           0
      4777 MEMB     36       POPC     H15X     HAL2     0.900000E-01   1.00800           0
      4778 MEMB     36       POPC     H15Y     HAL2     0.900000E-01   1.00800           0
      4779 MEMB     36       POPC     C316     CTL3    -0.270000       12.0110           0
      4780 MEMB     36       POPC     H16X     HAL3     0.900000E-01   1.00800           0
      4781 MEMB     36       POPC     H16Y     HAL3     0.900000E-01   1.00800           0
      4782 MEMB     36       POPC     H16Z     HAL3     0.900000E-01   1.00800           0
      4783 MEMB     37       POPS     N        NH3L    -0.300000       14.0070           0
      4784 MEMB     37       POPS     HN1      HCL      0.330000       1.00800           0
      4785 MEMB     37       POPS     HN2      HCL      0.330000       1.00800           0
      4786 MEMB     37       POPS     HN3      HCL      0.330000       1.00800           0
      4787 MEMB     37       POPS     C12      CTL1     0.210000       12.0110           0
      4788 MEMB     37       POPS     H12A     HBL      0.100000       1.00800           0
      4789 MEMB     37       POPS     C13      CCL      0.340000       12.0110           0
      4790 MEMB     37       POPS     O13A     OCL     -0.670000       15.9994           0
      4791 MEMB     37       POPS     O13B     OCL     -0.670000       15.9994           0
      4792 MEMB     37       POPS     C11      CTL2    -0.800000E-01   12.0110           0
      4793 MEMB     37       POPS     H11A     HAL2     0.900000E-01   1.00800           0
      4794 MEMB     37       POPS     H11B     HAL2     0.900000E-01   1.00800           0
      4795 MEMB     37       POPS     P        PL        1.50000       30.9740           0
      4796 MEMB     37       POPS     O13      O2L     -0.780000       15.9994           0
      4797 MEMB     37       POPS     O14      O2L     -0.780000       15.9994           0
      4798 MEMB     37       POPS     O12      OSLP    -0.570000       15.9994           0
      4799 MEMB     37       POPS     O11      OSLP    -0.570000       15.9994           0
      4800 MEMB     37       POPS     C1       CTL2    -0.800000E-01   12.0110           0
      4801 MEMB     37       POPS     HA       HAL2     0.900000E-01   1.00800           0
      4802 MEMB     37       POPS     HB       HAL2     0.900000E-01   1.00800           0
      4803 MEMB     37       POPS     C2       CTL1     0.170000       12.0110           0
      4804 MEMB     37       POPS     HS       HAL1     0.900000E-01   1.00800           0
      4805 MEMB     37       POPS     O21      OSL     -0.490000       15.9994           0
      4806 MEMB     37       POPS     C21      CL       0.900000       12.0110           0
      4807 MEMB     37       POPS     O22      OBL     -0.630000       15.9994           0
      4808 MEMB     37       POPS     C22      CTL2    -0.220000       12.0110           0
      4809 MEMB     37       POPS     H2R      HAL2     0.900000E-01   1.00800           0
      4810 MEMB     37       POPS     H2S      HAL2     0.900000E-01   1.00800           0
      4811 MEMB     37       POPS     C3       CTL2     0.800000E-01   12.0110           0
      4812 MEMB     37       POPS     HX       HAL2     0.900000E-01   1.00800           0
      4813 MEMB     37       POPS     HY       HAL2     0.900000E-01   1.00800           0
      4814 MEMB     37       POPS     O31      OSL     -0.490000       15.9994           0
      4815 MEMB     37       POPS     C31      CL       0.900000       12.0110           0
      4816 MEMB     37       POPS     O32      OBL     -0.630000       15.9994           0
      4817 MEMB     37       POPS     C32      CTL2    -0.220000       12.0110           0
      4818 MEMB     37       POPS     H2X      HAL2     0.900000E-01   1.00800           0
      4819 MEMB     37       POPS     H2Y      HAL2     0.900000E-01   1.00800           0
      4820 MEMB     37       POPS     C23      CTL2    -0.180000       12.0110           0
      4821 MEMB     37       POPS     H3R      HAL2     0.900000E-01   1.00800           0
      4822 MEMB     37       POPS     H3S      HAL2     0.900000E-01   1.00800           0
      4823 MEMB     37       POPS     C24      CTL2    -0.180000       12.0110           0
      4824 MEMB     37       POPS     H4R      HAL2     0.900000E-01   1.00800           0
      4825 MEMB     37       POPS     H4S      HAL2     0.900000E-01   1.00800           0
      4826 MEMB     37       POPS     C25      CTL2    -0.180000       12.0110           0
      4827 MEMB     37       POPS     H5R      HAL2     0.900000E-01   1.00800           0
      4828 MEMB     37       POPS     H5S      HAL2     0.900000E-01   1.00800           0
      4829 MEMB     37       POPS     C26      CTL2    -0.180000       12.0110           0
      4830 MEMB     37       POPS     H6R      HAL2     0.900000E-01   1.00800           0
      4831 MEMB     37       POPS     H6S      HAL2     0.900000E-01   1.00800           0
      4832 MEMB     37       POPS     C27      CTL2    -0.180000       12.0110           0
      4833 MEMB     37       POPS     H7R      HAL2     0.900000E-01   1.00800           0
      4834 MEMB     37       POPS     H7S      HAL2     0.900000E-01   1.00800           0
      4835 MEMB     37       POPS     C28      CTL2    -0.180000       12.0110           0
      4836 MEMB     37       POPS     H8R      HAL2     0.900000E-01   1.00800           0
      4837 MEMB     37       POPS     H8S      HAL2     0.900000E-01   1.00800           0
      4838 MEMB     37       POPS     C29      CEL1    -0.150000       12.0110           0
      4839 MEMB     37       POPS     H91      HEL1     0.150000       1.00800           0
      4840 MEMB     37       POPS     C210     CEL1    -0.150000       12.0110           0
      4841 MEMB     37       POPS     H101     HEL1     0.150000       1.00800           0
      4842 MEMB     37       POPS     C211     CTL2    -0.180000       12.0110           0
      4843 MEMB     37       POPS     H11R     HAL2     0.900000E-01   1.00800           0
      4844 MEMB     37       POPS     H11S     HAL2     0.900000E-01   1.00800           0
      4845 MEMB     37       POPS     C212     CTL2    -0.180000       12.0110           0
      4846 MEMB     37       POPS     H12R     HAL2     0.900000E-01   1.00800           0
      4847 MEMB     37       POPS     H12S     HAL2     0.900000E-01   1.00800           0
      4848 MEMB     37       POPS     C213     CTL2    -0.180000       12.0110           0
      4849 MEMB     37       POPS     H13R     HAL2     0.900000E-01   1.00800           0
      4850 MEMB     37       POPS     H13S     HAL2     0.900000E-01   1.00800           0
      4851 MEMB     37       POPS     C214     CTL2    -0.180000       12.0110           0
      4852 MEMB     37       POPS     H14R     HAL2     0.900000E-01   1.00800           0
      4853 MEMB     37       POPS     H14S     HAL2     0.900000E-01   1.00800           0
      4854 MEMB     37       POPS     C215     CTL2    -0.180000       12.0110           0
      4855 MEMB     37       POPS     H15R     HAL2     0.900000E-01   1.00800           0
      4856 MEMB     37       POPS     H15S     HAL2     0.900000E-01   1.00800           0
      4857 MEMB     37       POPS     C216     CTL2    -0.180000       12.0110           0
      4858 MEMB     37       POPS     H16R     HAL2     0.900000E-01   1.00800           0
      4859 MEMB     37       POPS     H16S     HAL2     0.900000E-01   1.00800           0
      4860 MEMB     37       POPS     C217     CTL2    -0.180000       12.0110           0
      4861 MEMB     37       POPS     H17R     HAL2     0.900000E-01   1.00800           0
      4862 MEMB     37       POPS     H17S     HAL2     0.900000E-01   1.00800           0
      4863 MEMB     37       POPS     C218     CTL3    -0.270000       12.0110           0
      4864 MEMB     37       POPS     H18R     HAL3     0.900000E-01   1.00800           0
      4865 MEMB     37       POPS     H18S     HAL3     0.900000E-01   1.00800           0
      4866 MEMB     37       POPS     H18T     HAL3     0.900000E-01   1.00800           0
      4867 MEMB     37       POPS     C33      CTL2    -0.180000       12.0110           0
      4868 MEMB     37       POPS     H3X      HAL2     0.900000E-01   1.00800           0
      4869 MEMB     37       POPS     H3Y      HAL2     0.900000E-01   1.00800           0
      4870 MEMB     37       POPS     C34      CTL2    -0.180000       12.0110           0
      4871 MEMB     37       POPS     H4X      HAL2     0.900000E-01   1.00800           0
      4872 MEMB     37       POPS     H4Y      HAL2     0.900000E-01   1.00800           0
      4873 MEMB     37       POPS     C35      CTL2    -0.180000       12.0110           0
      4874 MEMB     37       POPS     H5X      HAL2     0.900000E-01   1.00800           0
      4875 MEMB     37       POPS     H5Y      HAL2     0.900000E-01   1.00800           0
      4876 MEMB     37       POPS     C36      CTL2    -0.180000       12.0110           0
      4877 MEMB     37       POPS     H6X      HAL2     0.900000E-01   1.00800           0
      4878 MEMB     37       POPS     H6Y      HAL2     0.900000E-01   1.00800           0
      4879 MEMB     37       POPS     C37      CTL2    -0.180000       12.0110           0
      4880 MEMB     37       POPS     H7X      HAL2     0.900000E-01   1.00800           0
      4881 MEMB     37       POPS     H7Y      HAL2     0.900000E-01   1.00800           0
      4882 MEMB     37       POPS     C38      CTL2    -0.180000       12.0110           0
      4883 MEMB     37       POPS     H8X      HAL2     0.900000E-01   1.00800           0
      4884 MEMB     37       POPS     H8Y      HAL2     0.900000E-01   1.00800           0
      4885 MEMB     37       POPS     C39      CTL2    -0.180000       12.0110           0
      4886 MEMB     37       POPS     H9X      HAL2     0.900000E-01   1.00800           0
      4887 MEMB     37       POPS     H9Y      HAL2     0.900000E-01   1.00800           0
      4888 MEMB     37       POPS     C310     CTL2    -0.180000       12.0110           0
      4889 MEMB     37       POPS     H10X     HAL2     0.900000E-01   1.00800           0
      4890 MEMB     37       POPS     H10Y     HAL2     0.900000E-01   1.00800           0
      4891 MEMB     37       POPS     C311     CTL2    -0.180000       12.0110           0
      4892 MEMB     37       POPS     H11X     HAL2     0.900000E-01   1.00800           0
      4893 MEMB     37       POPS     H11Y     HAL2     0.900000E-01   1.00800           0
      4894 MEMB     37       POPS     C312     CTL2    -0.180000       12.0110           0
      4895 MEMB     37       POPS     H12X     HAL2     0.900000E-01   1.00800           0
      4896 MEMB     37       POPS     H12Y     HAL2     0.900000E-01   1.00800           0
      4897 MEMB     37       POPS     C313     CTL2    -0.180000       12.0110           0
      4898 MEMB     37       POPS     H13X     HAL2     0.900000E-01   1.00800           0
      4899 MEMB     37       POPS     H13Y     HAL2     0.900000E-01   1.00800           0
      4900 MEMB     37       POPS     C314     CTL2    -0.180000       12.0110           0
      4901 MEMB     37       POPS     H14X     HAL2     0.900000E-01   1.00800           0
      4902 MEMB     37       POPS     H14Y     HAL2     0.900000E-01   1.00800           0
      4903 MEMB     37       POPS     C315     CTL2    -0.180000       12.0110           0
      4904 MEMB     37       POPS     H15X     HAL2     0.900000E-01   1.00800           0
      4905 MEMB     37       POPS     H15Y     HAL2     0.900000E-01   1.00800           0
      4906 MEMB     37       POPS     C316     CTL3    -0.270000       12.0110           0
      4907 MEMB     37       POPS     H16X     HAL3     0.900000E-01   1.00800           0
      4908 MEMB     37       POPS     H16Y     HAL3     0.900000E-01   1.00800           0
      4909 MEMB     37       POPS     H16Z     HAL3     0.900000E-01   1.00800           0
      4910 MEMB     38       POPC     N        NTL     -0.600000       14.0070           0
      4911 MEMB     38       POPC     C12      CTL2    -0.100000       12.0110           0
      4912 MEMB     38       POPC     H12A     HL       0.250000       1.00800           0
      4913 MEMB     38       POPC     H12B     HL       0.250000       1.00800           0
      4914 MEMB     38       POPC     C13      CTL5    -0.350000       12.0110           0
      4915 MEMB     38       POPC     H13A     HL       0.250000       1.00800           0
      4916 MEMB     38       POPC     H13B     HL       0.250000       1.00800           0
      4917 MEMB     38       POPC     H13C     HL       0.250000       1.00800           0
      4918 MEMB     38       POPC     C14      CTL5    -0.350000       12.0110           0
      4919 MEMB     38       POPC     H14A     HL       0.250000       1.00800           0
      4920 MEMB     38       POPC     H14B     HL       0.250000       1.00800           0
      4921 MEMB     38       POPC     H14C     HL       0.250000       1.00800           0
      4922 MEMB     38       POPC     C15      CTL5    -0.350000       12.0110           0
      4923 MEMB     38       POPC     H15A     HL       0.250000       1.00800           0
      4924 MEMB     38       POPC     H15B     HL       0.250000       1.00800           0
      4925 MEMB     38       POPC     H15C     HL       0.250000       1.00800           0
      4926 MEMB     38       POPC     C11      CTL2    -0.800000E-01   12.0110           0
      4927 MEMB     38       POPC     H11A     HAL2     0.900000E-01   1.00800           0
      4928 MEMB     38       POPC     H11B     HAL2     0.900000E-01   1.00800           0
      4929 MEMB     38       POPC     P        PL        1.50000       30.9740           0
      4930 MEMB     38       POPC     O13      O2L     -0.780000       15.9994           0
      4931 MEMB     38       POPC     O14      O2L     -0.780000       15.9994           0
      4932 MEMB     38       POPC     O12      OSLP    -0.570000       15.9994           0
      4933 MEMB     38       POPC     O11      OSLP    -0.570000       15.9994           0
      4934 MEMB     38       POPC     C1       CTL2    -0.800000E-01   12.0110           0
      4935 MEMB     38       POPC     HA       HAL2     0.900000E-01   1.00800           0
      4936 MEMB     38       POPC     HB       HAL2     0.900000E-01   1.00800           0
      4937 MEMB     38       POPC     C2       CTL1     0.170000       12.0110           0
      4938 MEMB     38       POPC     HS       HAL1     0.900000E-01   1.00800           0
      4939 MEMB     38       POPC     O21      OSL     -0.490000       15.9994           0
      4940 MEMB     38       POPC     C21      CL       0.900000       12.0110           0
      4941 MEMB     38       POPC     O22      OBL     -0.630000       15.9994           0
      4942 MEMB     38       POPC     C22      CTL2    -0.220000       12.0110           0
      4943 MEMB     38       POPC     H2R      HAL2     0.900000E-01   1.00800           0
      4944 MEMB     38       POPC     H2S      HAL2     0.900000E-01   1.00800           0
      4945 MEMB     38       POPC     C3       CTL2     0.800000E-01   12.0110           0
      4946 MEMB     38       POPC     HX       HAL2     0.900000E-01   1.00800           0
      4947 MEMB     38       POPC     HY       HAL2     0.900000E-01   1.00800           0
      4948 MEMB     38       POPC     O31      OSL     -0.490000       15.9994           0
      4949 MEMB     38       POPC     C31      CL       0.900000       12.0110           0
      4950 MEMB     38       POPC     O32      OBL     -0.630000       15.9994           0
      4951 MEMB     38       POPC     C32      CTL2    -0.220000       12.0110           0
      4952 MEMB     38       POPC     H2X      HAL2     0.900000E-01   1.00800           0
      4953 MEMB     38       POPC     H2Y      HAL2     0.900000E-01   1.00800           0
      4954 MEMB     38       POPC     C23      CTL2    -0.180000       12.0110           0
      4955 MEMB     38       POPC     H3R      HAL2     0.900000E-01   1.00800           0
      4956 MEMB     38       POPC     H3S      HAL2     0.900000E-01   1.00800           0
      4957 MEMB     38       POPC     C24      CTL2    -0.180000       12.0110           0
      4958 MEMB     38       POPC     H4R      HAL2     0.900000E-01   1.00800           0
      4959 MEMB     38       POPC     H4S      HAL2     0.900000E-01   1.00800           0
      4960 MEMB     38       POPC     C25      CTL2    -0.180000       12.0110           0
      4961 MEMB     38       POPC     H5R      HAL2     0.900000E-01   1.00800           0
      4962 MEMB     38       POPC     H5S      HAL2     0.900000E-01   1.00800           0
      4963 MEMB     38       POPC     C26      CTL2    -0.180000       12.0110           0
      4964 MEMB     38       POPC     H6R      HAL2     0.900000E-01   1.00800           0
      4965 MEMB     38       POPC     H6S      HAL2     0.900000E-01   1.00800           0
      4966 MEMB     38       POPC     C27      CTL2    -0.180000       12.0110           0
      4967 MEMB     38       POPC     H7R      HAL2     0.900000E-01   1.00800           0
      4968 MEMB     38       POPC     H7S      HAL2     0.900000E-01   1.00800           0
      4969 MEMB     38       POPC     C28      CTL2    -0.180000       12.0110           0
      4970 MEMB     38       POPC     H8R      HAL2     0.900000E-01   1.00800           0
      4971 MEMB     38       POPC     H8S      HAL2     0.900000E-01   1.00800           0
      4972 MEMB     38       POPC     C29      CEL1    -0.150000       12.0110           0
      4973 MEMB     38       POPC     H91      HEL1     0.150000       1.00800           0
      4974 MEMB     38       POPC     C210     CEL1    -0.150000       12.0110           0
      4975 MEMB     38       POPC     H101     HEL1     0.150000       1.00800           0
      4976 MEMB     38       POPC     C211     CTL2    -0.180000       12.0110           0
      4977 MEMB     38       POPC     H11R     HAL2     0.900000E-01   1.00800           0
      4978 MEMB     38       POPC     H11S     HAL2     0.900000E-01   1.00800           0
      4979 MEMB     38       POPC     C212     CTL2    -0.180000       12.0110           0
      4980 MEMB     38       POPC     H12R     HAL2     0.900000E-01   1.00800           0
      4981 MEMB     38       POPC     H12S     HAL2     0.900000E-01   1.00800           0
      4982 MEMB     38       POPC     C213     CTL2    -0.180000       12.0110           0
      4983 MEMB     38       POPC     H13R     HAL2     0.900000E-01   1.00800           0
      4984 MEMB     38       POPC     H13S     HAL2     0.900000E-01   1.00800           0
      4985 MEMB     38       POPC     C214     CTL2    -0.180000       12.0110           0
      4986 MEMB     38       POPC     H14R     HAL2     0.900000E-01   1.00800           0
      4987 MEMB     38       POPC     H14S     HAL2     0.900000E-01   1.00800           0
      4988 MEMB     38       POPC     C215     CTL2    -0.180000       12.0110           0
      4989 MEMB     38       POPC     H15R     HAL2     0.900000E-01   1.00800           0
      4990 MEMB     38       POPC     H15S     HAL2     0.900000E-01   1.00800           0
      4991 MEMB     38       POPC     C216     CTL2    -0.180000       12.0110           0
      4992 MEMB     38       POPC     H16R     HAL2     0.900000E-01   1.00800           0
      4993 MEMB     38       POPC     H16S     HAL2     0.900000E-01   1.00800           0
      4994 MEMB     38       POPC     C217     CTL2    -0.180000       12.0110           0
      4995 MEMB     38       POPC     H17R     HAL2     0.900000E-01   1.00800           0
      4996 MEMB     38       POPC     H17S     HAL2     0.900000E-01   1.00800           0
      4997 MEMB     38       POPC     C218     CTL3    -0.270000       12.0110           0
      4998 MEMB     38       POPC     H18R     HAL3     0.900000E-01   1.00800           0
      4999 MEMB     38       POPC     H18S     HAL3     0.900000E-01   1.00800           0
      5000 MEMB     38       POPC     H18T     HAL3     0.900000E-01   1.00800           0
      5001 MEMB     38       POPC     C33      CTL2    -0.180000       12.0110           0
      5002 MEMB     38       POPC     H3X      HAL2     0.900000E-01   1.00800           0
      5003 MEMB     38       POPC     H3Y      HAL2     0.900000E-01   1.00800           0
      5004 MEMB     38       POPC     C34      CTL2    -0.180000       12.0110           0
      5005 MEMB     38       POPC     H4X      HAL2     0.900000E-01   1.00800           0
      5006 MEMB     38       POPC     H4Y      HAL2     0.900000E-01   1.00800           0
      5007 MEMB     38       POPC     C35      CTL2    -0.180000       12.0110           0
      5008 MEMB     38       POPC     H5X      HAL2     0.900000E-01   1.00800           0
      5009 MEMB     38       POPC     H5Y      HAL2     0.900000E-01   1.00800           0
      5010 MEMB     38       POPC     C36      CTL2    -0.180000       12.0110           0
      5011 MEMB     38       POPC     H6X      HAL2     0.900000E-01   1.00800           0
      5012 MEMB     38       POPC     H6Y      HAL2     0.900000E-01   1.00800           0
      5013 MEMB     38       POPC     C37      CTL2    -0.180000       12.0110           0
      5014 MEMB     38       POPC     H7X      HAL2     0.900000E-01   1.00800           0
      5015 MEMB     38       POPC     H7Y      HAL2     0.900000E-01   1.00800           0
      5016 MEMB     38       POPC     C38      CTL2    -0.180000       12.0110           0
      5017 MEMB     38       POPC     H8X      HAL2     0.900000E-01   1.00800           0
      5018 MEMB     38       POPC     H8Y      HAL2     0.900000E-01   1.00800           0
      5019 MEMB     38       POPC     C39      CTL2    -0.180000       12.0110           0
      5020 MEMB     38       POPC     H9X      HAL2     0.900000E-01   1.00800           0
      5021 MEMB     38       POPC     H9Y      HAL2     0.900000E-01   1.00800           0
      5022 MEMB     38       POPC     C310     CTL2    -0.180000       12.0110           0
      5023 MEMB     38       POPC     H10X     HAL2     0.900000E-01   1.00800           0
      5024 MEMB     38       POPC     H10Y     HAL2     0.900000E-01   1.00800           0
      5025 MEMB     38       POPC     C311     CTL2    -0.180000       12.0110           0
      5026 MEMB     38       POPC     H11X     HAL2     0.900000E-01   1.00800           0
      5027 MEMB     38       POPC     H11Y     HAL2     0.900000E-01   1.00800           0
      5028 MEMB     38       POPC     C312     CTL2    -0.180000       12.0110           0
      5029 MEMB     38       POPC     H12X     HAL2     0.900000E-01   1.00800           0
      5030 MEMB     38       POPC     H12Y     HAL2     0.900000E-01   1.00800           0
      5031 MEMB     38       POPC     C313     CTL2    -0.180000       12.0110           0
      5032 MEMB     38       POPC     H13X     HAL2     0.900000E-01   1.00800           0
      5033 MEMB     38       POPC     H13Y     HAL2     0.900000E-01   1.00800           0
      5034 MEMB     38       POPC     C314     CTL2    -0.180000       12.0110           0
      5035 MEMB     38       POPC     H14X     HAL2     0.900000E-01   1.00800           0
      5036 MEMB     38       POPC     H14Y     HAL2     0.900000E-01   1.00800           0
      5037 MEMB     38       POPC     C315     CTL2    -0.180000       12.0110           0
      5038 MEMB     38       POPC     H15X     HAL2     0.900000E-01   1.00800           0
      5039 MEMB     38       POPC     H15Y     HAL2     0.900000E-01   1.00800           0
      5040 MEMB     38       POPC     C316     CTL3    -0.270000       12.0110           0
      5041 MEMB     38       POPC     H16X     HAL3     0.900000E-01   1.00800           0
      5042 MEMB     38       POPC     H16Y     HAL3     0.900000E-01   1.00800           0
      5043 MEMB     38       POPC     H16Z     HAL3     0.900000E-01   1.00800           0
      5044 MEMB     39       POPC     N        NTL     -0.600000       14.0070           0
      5045 MEMB     39       POPC     C12      CTL2    -0.100000       12.0110           0
      5046 MEMB     39       POPC     H12A     HL       0.250000       1.00800           0
      5047 MEMB     39       POPC     H12B     HL       0.250000       1.00800           0
      5048 MEMB     39       POPC     C13      CTL5    -0.350000       12.0110           0
      5049 MEMB     39       POPC     H13A     HL       0.250000       1.00800           0
      5050 MEMB     39       POPC     H13B     HL       0.250000       1.00800           0
      5051 MEMB     39       POPC     H13C     HL       0.250000       1.00800           0
      5052 MEMB     39       POPC     C14      CTL5    -0.350000       12.0110           0
      5053 MEMB     39       POPC     H14A     HL       0.250000       1.00800           0
      5054 MEMB     39       POPC     H14B     HL       0.250000       1.00800           0
      5055 MEMB     39       POPC     H14C     HL       0.250000       1.00800           0
      5056 MEMB     39       POPC     C15      CTL5    -0.350000       12.0110           0
      5057 MEMB     39       POPC     H15A     HL       0.250000       1.00800           0
      5058 MEMB     39       POPC     H15B     HL       0.250000       1.00800           0
      5059 MEMB     39       POPC     H15C     HL       0.250000       1.00800           0
      5060 MEMB     39       POPC     C11      CTL2    -0.800000E-01   12.0110           0
      5061 MEMB     39       POPC     H11A     HAL2     0.900000E-01   1.00800           0
      5062 MEMB     39       POPC     H11B     HAL2     0.900000E-01   1.00800           0
      5063 MEMB     39       POPC     P        PL        1.50000       30.9740           0
      5064 MEMB     39       POPC     O13      O2L     -0.780000       15.9994           0
      5065 MEMB     39       POPC     O14      O2L     -0.780000       15.9994           0
      5066 MEMB     39       POPC     O12      OSLP    -0.570000       15.9994           0
      5067 MEMB     39       POPC     O11      OSLP    -0.570000       15.9994           0
      5068 MEMB     39       POPC     C1       CTL2    -0.800000E-01   12.0110           0
      5069 MEMB     39       POPC     HA       HAL2     0.900000E-01   1.00800           0
      5070 MEMB     39       POPC     HB       HAL2     0.900000E-01   1.00800           0
      5071 MEMB     39       POPC     C2       CTL1     0.170000       12.0110           0
      5072 MEMB     39       POPC     HS       HAL1     0.900000E-01   1.00800           0
      5073 MEMB     39       POPC     O21      OSL     -0.490000       15.9994           0
      5074 MEMB     39       POPC     C21      CL       0.900000       12.0110           0
      5075 MEMB     39       POPC     O22      OBL     -0.630000       15.9994           0
      5076 MEMB     39       POPC     C22      CTL2    -0.220000       12.0110           0
      5077 MEMB     39       POPC     H2R      HAL2     0.900000E-01   1.00800           0
      5078 MEMB     39       POPC     H2S      HAL2     0.900000E-01   1.00800           0
      5079 MEMB     39       POPC     C3       CTL2     0.800000E-01   12.0110           0
      5080 MEMB     39       POPC     HX       HAL2     0.900000E-01   1.00800           0
      5081 MEMB     39       POPC     HY       HAL2     0.900000E-01   1.00800           0
      5082 MEMB     39       POPC     O31      OSL     -0.490000       15.9994           0
      5083 MEMB     39       POPC     C31      CL       0.900000       12.0110           0
      5084 MEMB     39       POPC     O32      OBL     -0.630000       15.9994           0
      5085 MEMB     39       POPC     C32      CTL2    -0.220000       12.0110           0
      5086 MEMB     39       POPC     H2X      HAL2     0.900000E-01   1.00800           0
      5087 MEMB     39       POPC     H2Y      HAL2     0.900000E-01   1.00800           0
      5088 MEMB     39       POPC     C23      CTL2    -0.180000       12.0110           0
      5089 MEMB     39       POPC     H3R      HAL2     0.900000E-01   1.00800           0
      5090 MEMB     39       POPC     H3S      HAL2     0.900000E-01   1.00800           0
      5091 MEMB     39       POPC     C24      CTL2    -0.180000       12.0110           0
      5092 MEMB     39       POPC     H4R      HAL2     0.900000E-01   1.00800           0
      5093 MEMB     39       POPC     H4S      HAL2     0.900000E-01   1.00800           0
      5094 MEMB     39       POPC     C25      CTL2    -0.180000       12.0110           0
      5095 MEMB     39       POPC     H5R      HAL2     0.900000E-01   1.00800           0
      5096 MEMB     39       POPC     H5S      HAL2     0.900000E-01   1.00800           0
      5097 MEMB     39       POPC     C26      CTL2    -0.180000       12.0110           0
      5098 MEMB     39       POPC     H6R      HAL2     0.900000E-01   1.00800           0
      5099 MEMB     39       POPC     H6S      HAL2     0.900000E-01   1.00800           0
      5100 MEMB     39       POPC     C27      CTL2    -0.180000       12.0110           0
      5101 MEMB     39       POPC     H7R      HAL2     0.900000E-01   1.00800           0
      5102 MEMB     39       POPC     H7S      HAL2     0.900000E-01   1.00800           0
      5103 MEMB     39       POPC     C28      CTL2    -0.180000       12.0110           0
      5104 MEMB     39       POPC     H8R      HAL2     0.900000E-01   1.00800           0
      5105 MEMB     39       POPC     H8S      HAL2     0.900000E-01   1.00800           0
      5106 MEMB     39       POPC     C29      CEL1    -0.150000       12.0110           0
      5107 MEMB     39       POPC     H91      HEL1     0.150000       1.00800           0
      5108 MEMB     39       POPC     C210     CEL1    -0.150000       12.0110           0
      5109 MEMB     39       POPC     H101     HEL1     0.150000       1.00800           0
      5110 MEMB     39       POPC     C211     CTL2    -0.180000       12.0110           0
      5111 MEMB     39       POPC     H11R     HAL2     0.900000E-01   1.00800           0
      5112 MEMB     39       POPC     H11S     HAL2     0.900000E-01   1.00800           0
      5113 MEMB     39       POPC     C212     CTL2    -0.180000       12.0110           0
      5114 MEMB     39       POPC     H12R     HAL2     0.900000E-01   1.00800           0
      5115 MEMB     39       POPC     H12S     HAL2     0.900000E-01   1.00800           0
      5116 MEMB     39       POPC     C213     CTL2    -0.180000       12.0110           0
      5117 MEMB     39       POPC     H13R     HAL2     0.900000E-01   1.00800           0
      5118 MEMB     39       POPC     H13S     HAL2     0.900000E-01   1.00800           0
      5119 MEMB     39       POPC     C214     CTL2    -0.180000       12.0110           0
      5120 MEMB     39       POPC     H14R     HAL2     0.900000E-01   1.00800           0
      5121 MEMB     39       POPC     H14S     HAL2     0.900000E-01   1.00800           0
      5122 MEMB     39       POPC     C215     CTL2    -0.180000       12.0110           0
      5123 MEMB     39       POPC     H15R     HAL2     0.900000E-01   1.00800           0
      5124 MEMB     39       POPC     H15S     HAL2     0.900000E-01   1.00800           0
      5125 MEMB     39       POPC     C216     CTL2    -0.180000       12.0110           0
      5126 MEMB     39       POPC     H16R     HAL2     0.900000E-01   1.00800           0
      5127 MEMB     39       POPC     H16S     HAL2     0.900000E-01   1.00800           0
      5128 MEMB     39       POPC     C217     CTL2    -0.180000       12.0110           0
      5129 MEMB     39       POPC     H17R     HAL2     0.900000E-01   1.00800           0
      5130 MEMB     39       POPC     H17S     HAL2     0.900000E-01   1.00800           0
      5131 MEMB     39       POPC     C218     CTL3    -0.270000       12.0110           0
      5132 MEMB     39       POPC     H18R     HAL3     0.900000E-01   1.00800           0
      5133 MEMB     39       POPC     H18S     HAL3     0.900000E-01   1.00800           0
      5134 MEMB     39       POPC     H18T     HAL3     0.900000E-01   1.00800           0
      5135 MEMB     39       POPC     C33      CTL2    -0.180000       12.0110           0
      5136 MEMB     39       POPC     H3X      HAL2     0.900000E-01   1.00800           0
      5137 MEMB     39       POPC     H3Y      HAL2     0.900000E-01   1.00800           0
      5138 MEMB     39       POPC     C34      CTL2    -0.180000       12.0110           0
      5139 MEMB     39       POPC     H4X      HAL2     0.900000E-01   1.00800           0
      5140 MEMB     39       POPC     H4Y      HAL2     0.900000E-01   1.00800           0
      5141 MEMB     39       POPC     C35      CTL2    -0.180000       12.0110           0
      5142 MEMB     39       POPC     H5X      HAL2     0.900000E-01   1.00800           0
      5143 MEMB     39       POPC     H5Y      HAL2     0.900000E-01   1.00800           0
      5144 MEMB     39       POPC     C36      CTL2    -0.180000       12.0110           0
      5145 MEMB     39       POPC     H6X      HAL2     0.900000E-01   1.00800           0
      5146 MEMB     39       POPC     H6Y      HAL2     0.900000E-01   1.00800           0
      5147 MEMB     39       POPC     C37      CTL2    -0.180000       12.0110           0
      5148 MEMB     39       POPC     H7X      HAL2     0.900000E-01   1.00800           0
      5149 MEMB     39       POPC     H7Y      HAL2     0.900000E-01   1.00800           0
      5150 MEMB     39       POPC     C38      CTL2    -0.180000       12.0110           0
      5151 MEMB     39       POPC     H8X      HAL2     0.900000E-01   1.00800           0
      5152 MEMB     39       POPC     H8Y      HAL2     0.900000E-01   1.00800           0
      5153 MEMB     39       POPC     C39      CTL2    -0.180000       12.0110           0
      5154 MEMB     39       POPC     H9X      HAL2     0.900000E-01   1.00800           0
      5155 MEMB     39       POPC     H9Y      HAL2     0.900000E-01   1.00800           0
      5156 MEMB     39       POPC     C310     CTL2    -0.180000       12.0110           0
      5157 MEMB     39       POPC     H10X     HAL2     0.900000E-01   1.00800           0
      5158 MEMB     39       POPC     H10Y     HAL2     0.900000E-01   1.00800           0
      5159 MEMB     39       POPC     C311     CTL2    -0.180000       12.0110           0
      5160 MEMB     39       POPC     H11X     HAL2     0.900000E-01   1.00800           0
      5161 MEMB     39       POPC     H11Y     HAL2     0.900000E-01   1.00800           0
      5162 MEMB     39       POPC     C312     CTL2    -0.180000       12.0110           0
      5163 MEMB     39       POPC     H12X     HAL2     0.900000E-01   1.00800           0
      5164 MEMB     39       POPC     H12Y     HAL2     0.900000E-01   1.00800           0
      5165 MEMB     39       POPC     C313     CTL2    -0.180000       12.0110           0
      5166 MEMB     39       POPC     H13X     HAL2     0.900000E-01   1.00800           0
      5167 MEMB     39       POPC     H13Y     HAL2     0.900000E-01   1.00800           0
      5168 MEMB     39       POPC     C314     CTL2    -0.180000       12.0110           0
      5169 MEMB     39       POPC     H14X     HAL2     0.900000E-01   1.00800           0
      5170 MEMB     39       POPC     H14Y     HAL2     0.900000E-01   1.00800           0
      5171 MEMB     39       POPC     C315     CTL2    -0.180000       12.0110           0
      5172 MEMB     39       POPC     H15X     HAL2     0.900000E-01   1.00800           0
      5173 MEMB     39       POPC     H15Y     HAL2     0.900000E-01   1.00800           0
      5174 MEMB     39       POPC     C316     CTL3    -0.270000       12.0110           0
      5175 MEMB     39       POPC     H16X     HAL3     0.900000E-01   1.00800           0
      5176 MEMB     39       POPC     H16Y     HAL3     0.900000E-01   1.00800           0
      5177 MEMB     39       POPC     H16Z     HAL3     0.900000E-01   1.00800           0
      5178 MEMB     40       POPC     N        NTL     -0.600000       14.0070           0
      5179 MEMB     40       POPC     C12      CTL2    -0.100000       12.0110           0
      5180 MEMB     40       POPC     H12A     HL       0.250000       1.00800           0
      5181 MEMB     40       POPC     H12B     HL       0.250000       1.00800           0
      5182 MEMB     40       POPC     C13      CTL5    -0.350000       12.0110           0
      5183 MEMB     40       POPC     H13A     HL       0.250000       1.00800           0
      5184 MEMB     40       POPC     H13B     HL       0.250000       1.00800           0
      5185 MEMB     40       POPC     H13C     HL       0.250000       1.00800           0
      5186 MEMB     40       POPC     C14      CTL5    -0.350000       12.0110           0
      5187 MEMB     40       POPC     H14A     HL       0.250000       1.00800           0
      5188 MEMB     40       POPC     H14B     HL       0.250000       1.00800           0
      5189 MEMB     40       POPC     H14C     HL       0.250000       1.00800           0
      5190 MEMB     40       POPC     C15      CTL5    -0.350000       12.0110           0
      5191 MEMB     40       POPC     H15A     HL       0.250000       1.00800           0
      5192 MEMB     40       POPC     H15B     HL       0.250000       1.00800           0
      5193 MEMB     40       POPC     H15C     HL       0.250000       1.00800           0
      5194 MEMB     40       POPC     C11      CTL2    -0.800000E-01   12.0110           0
      5195 MEMB     40       POPC     H11A     HAL2     0.900000E-01   1.00800           0
      5196 MEMB     40       POPC     H11B     HAL2     0.900000E-01   1.00800           0
      5197 MEMB     40       POPC     P        PL        1.50000       30.9740           0
      5198 MEMB     40       POPC     O13      O2L     -0.780000       15.9994           0
      5199 MEMB     40       POPC     O14      O2L     -0.780000       15.9994           0
      5200 MEMB     40       POPC     O12      OSLP    -0.570000       15.9994           0
      5201 MEMB     40       POPC     O11      OSLP    -0.570000       15.9994           0
      5202 MEMB     40       POPC     C1       CTL2    -0.800000E-01   12.0110           0
      5203 MEMB     40       POPC     HA       HAL2     0.900000E-01   1.00800           0
      5204 MEMB     40       POPC     HB       HAL2     0.900000E-01   1.00800           0
      5205 MEMB     40       POPC     C2       CTL1     0.170000       12.0110           0
      5206 MEMB     40       POPC     HS       HAL1     0.900000E-01   1.00800           0
      5207 MEMB     40       POPC     O21      OSL     -0.490000       15.9994           0
      5208 MEMB     40       POPC     C21      CL       0.900000       12.0110           0
      5209 MEMB     40       POPC     O22      OBL     -0.630000       15.9994           0
      5210 MEMB     40       POPC     C22      CTL2    -0.220000       12.0110           0
      5211 MEMB     40       POPC     H2R      HAL2     0.900000E-01   1.00800           0
      5212 MEMB     40       POPC     H2S      HAL2     0.900000E-01   1.00800           0
      5213 MEMB     40       POPC     C3       CTL2     0.800000E-01   12.0110           0
      5214 MEMB     40       POPC     HX       HAL2     0.900000E-01   1.00800           0
      5215 MEMB     40       POPC     HY       HAL2     0.900000E-01   1.00800           0
      5216 MEMB     40       POPC     O31      OSL     -0.490000       15.9994           0
      5217 MEMB     40       POPC     C31      CL       0.900000       12.0110           0
      5218 MEMB     40       POPC     O32      OBL     -0.630000       15.9994           0
      5219 MEMB     40       POPC     C32      CTL2    -0.220000       12.0110           0
      5220 MEMB     40       POPC     H2X      HAL2     0.900000E-01   1.00800           0
      5221 MEMB     40       POPC     H2Y      HAL2     0.900000E-01   1.00800           0
      5222 MEMB     40       POPC     C23      CTL2    -0.180000       12.0110           0
      5223 MEMB     40       POPC     H3R      HAL2     0.900000E-01   1.00800           0
      5224 MEMB     40       POPC     H3S      HAL2     0.900000E-01   1.00800           0
      5225 MEMB     40       POPC     C24      CTL2    -0.180000       12.0110           0
      5226 MEMB     40       POPC     H4R      HAL2     0.900000E-01   1.00800           0
      5227 MEMB     40       POPC     H4S      HAL2     0.900000E-01   1.00800           0
      5228 MEMB     40       POPC     C25      CTL2    -0.180000       12.0110           0
      5229 MEMB     40       POPC     H5R      HAL2     0.900000E-01   1.00800           0
      5230 MEMB     40       POPC     H5S      HAL2     0.900000E-01   1.00800           0
      5231 MEMB     40       POPC     C26      CTL2    -0.180000       12.0110           0
      5232 MEMB     40       POPC     H6R      HAL2     0.900000E-01   1.00800           0
      5233 MEMB     40       POPC     H6S      HAL2     0.900000E-01   1.00800           0
      5234 MEMB     40       POPC     C27      CTL2    -0.180000       12.0110           0
      5235 MEMB     40       POPC     H7R      HAL2     0.900000E-01   1.00800           0
      5236 MEMB     40       POPC     H7S      HAL2     0.900000E-01   1.00800           0
      5237 MEMB     40       POPC     C28      CTL2    -0.180000       12.0110           0
      5238 MEMB     40       POPC     H8R      HAL2     0.900000E-01   1.00800           0
      5239 MEMB     40       POPC     H8S      HAL2     0.900000E-01   1.00800           0
      5240 MEMB     40       POPC     C29      CEL1    -0.150000       12.0110           0
      5241 MEMB     40       POPC     H91      HEL1     0.150000       1.00800           0
      5242 MEMB     40       POPC     C210     CEL1    -0.150000       12.0110           0
      5243 MEMB     40       POPC     H101     HEL1     0.150000       1.00800           0
      5244 MEMB     40       POPC     C211     CTL2    -0.180000       12.0110           0
      5245 MEMB     40       POPC     H11R     HAL2     0.900000E-01   1.00800           0
      5246 MEMB     40       POPC     H11S     HAL2     0.900000E-01   1.00800           0
      5247 MEMB     40       POPC     C212     CTL2    -0.180000       12.0110           0
      5248 MEMB     40       POPC     H12R     HAL2     0.900000E-01   1.00800           0
      5249 MEMB     40       POPC     H12S     HAL2     0.900000E-01   1.00800           0
      5250 MEMB     40       POPC     C213     CTL2    -0.180000       12.0110           0
      5251 MEMB     40       POPC     H13R     HAL2     0.900000E-01   1.00800           0
      5252 MEMB     40       POPC     H13S     HAL2     0.900000E-01   1.00800           0
      5253 MEMB     40       POPC     C214     CTL2    -0.180000       12.0110           0
      5254 MEMB     40       POPC     H14R     HAL2     0.900000E-01   1.00800           0
      5255 MEMB     40       POPC     H14S     HAL2     0.900000E-01   1.00800           0
      5256 MEMB     40       POPC     C215     CTL2    -0.180000       12.0110           0
      5257 MEMB     40       POPC     H15R     HAL2     0.900000E-01   1.00800           0
      5258 MEMB     40       POPC     H15S     HAL2     0.900000E-01   1.00800           0
      5259 MEMB     40       POPC     C216     CTL2    -0.180000       12.0110           0
      5260 MEMB     40       POPC     H16R     HAL2     0.900000E-01   1.00800           0
      5261 MEMB     40       POPC     H16S     HAL2     0.900000E-01   1.00800           0
      5262 MEMB     40       POPC     C217     CTL2    -0.180000       12.0110           0
      5263 MEMB     40       POPC     H17R     HAL2     0.900000E-01   1.00800           0
      5264 MEMB     40       POPC     H17S     HAL2     0.900000E-01   1.00800           0
      5265 MEMB     40       POPC     C218     CTL3    -0.270000       12.0110           0
      5266 MEMB     40       POPC     H18R     HAL3     0.900000E-01   1.00800           0
      5267 MEMB     40       POPC     H18S     HAL3     0.900000E-01   1.00800           0
      5268 MEMB     40       POPC     H18T     HAL3     0.900000E-01   1.00800           0
      5269 MEMB     40       POPC     C33      CTL2    -0.180000       12.0110           0
      5270 MEMB     40       POPC     H3X      HAL2     0.900000E-01   1.00800           0
      5271 MEMB     40       POPC     H3Y      HAL2     0.900000E-01   1.00800           0
      5272 MEMB     40       POPC     C34      CTL2    -0.180000       12.0110           0
      5273 MEMB     40       POPC     H4X      HAL2     0.900000E-01   1.00800           0
      5274 MEMB     40       POPC     H4Y      HAL2     0.900000E-01   1.00800           0
      5275 MEMB     40       POPC     C35      CTL2    -0.180000       12.0110           0
      5276 MEMB     40       POPC     H5X      HAL2     0.900000E-01   1.00800           0
      5277 MEMB     40       POPC     H5Y      HAL2     0.900000E-01   1.00800           0
      5278 MEMB     40       POPC     C36      CTL2    -0.180000       12.0110           0
      5279 MEMB     40       POPC     H6X      HAL2     0.900000E-01   1.00800           0
      5280 MEMB     40       POPC     H6Y      HAL2     0.900000E-01   1.00800           0
      5281 MEMB     40       POPC     C37      CTL2    -0.180000       12.0110           0
      5282 MEMB     40       POPC     H7X      HAL2     0.900000E-01   1.00800           0
      5283 MEMB     40       POPC     H7Y      HAL2     0.900000E-01   1.00800           0
      5284 MEMB     40       POPC     C38      CTL2    -0.180000       12.0110           0
      5285 MEMB     40       POPC     H8X      HAL2     0.900000E-01   1.00800           0
      5286 MEMB     40       POPC     H8Y      HAL2     0.900000E-01   1.00800           0
      5287 MEMB     40       POPC     C39      CTL2    -0.180000       12.0110           0
      5288 MEMB     40       POPC     H9X      HAL2     0.900000E-01   1.00800           0
      5289 MEMB     40       POPC     H9Y      HAL2     0.900000E-01   1.00800           0
      5290 MEMB     40       POPC     C310     CTL2    -0.180000       12.0110           0
      5291 MEMB     40       POPC     H10X     HAL2     0.900000E-01   1.00800           0
      5292 MEMB     40       POPC     H10Y     HAL2     0.900000E-01   1.00800           0
      5293 MEMB     40       POPC     C311     CTL2    -0.180000       12.0110           0
      5294 MEMB     40       POPC     H11X     HAL2     0.900000E-01   1.00800           0
      5295 MEMB     40       POPC     H11Y     HAL2     0.900000E-01   1.00800           0
      5296 MEMB     40       POPC     C312     CTL2    -0.180000       12.0110           0
      5297 MEMB     40       POPC     H12X     HAL2     0.900000E-01   1.00800           0
      5298 MEMB     40       POPC     H12Y     HAL2     0.900000E-01   1.00800           0
      5299 MEMB     40       POPC     C313     CTL2    -0.180000       12.0110           0
      5300 MEMB     40       POPC     H13X     HAL2     0.900000E-01   1.00800           0
      5301 MEMB     40       POPC     H13Y     HAL2     0.900000E-01   1.00800           0
      5302 MEMB     40       POPC     C314     CTL2    -0.180000       12.0110           0
      5303 MEMB     40       POPC     H14X     HAL2     0.900000E-01   1.00800           0
      5304 MEMB     40       POPC     H14Y     HAL2     0.900000E-01   1.00800           0
      5305 MEMB     40       POPC     C315     CTL2    -0.180000       12.0110           0
      5306 MEMB     40       POPC     H15X     HAL2     0.900000E-01   1.00800           0
      5307 MEMB     40       POPC     H15Y     HAL2     0.900000E-01   1.00800           0
      5308 MEMB     40       POPC     C316     CTL3    -0.270000       12.0110           0
      5309 MEMB     40       POPC     H16X     HAL3     0.900000E-01   1.00800           0
      5310 MEMB     40       POPC     H16Y     HAL3     0.900000E-01   1.00800           0
      5311 MEMB     40       POPC     H16Z     HAL3     0.900000E-01   1.00800           0
      5312 MEMB     41       POPC     N        NTL     -0.600000       14.0070           0
      5313 MEMB     41       POPC     C12      CTL2    -0.100000       12.0110           0
      5314 MEMB     41       POPC     H12A     HL       0.250000       1.00800           0
      5315 MEMB     41       POPC     H12B     HL       0.250000       1.00800           0
      5316 MEMB     41       POPC     C13      CTL5    -0.350000       12.0110           0
      5317 MEMB     41       POPC     H13A     HL       0.250000       1.00800           0
      5318 MEMB     41       POPC     H13B     HL       0.250000       1.00800           0
      5319 MEMB     41       POPC     H13C     HL       0.250000       1.00800           0
      5320 MEMB     41       POPC     C14      CTL5    -0.350000       12.0110           0
      5321 MEMB     41       POPC     H14A     HL       0.250000       1.00800           0
      5322 MEMB     41       POPC     H14B     HL       0.250000       1.00800           0
      5323 MEMB     41       POPC     H14C     HL       0.250000       1.00800           0
      5324 MEMB     41       POPC     C15      CTL5    -0.350000       12.0110           0
      5325 MEMB     41       POPC     H15A     HL       0.250000       1.00800           0
      5326 MEMB     41       POPC     H15B     HL       0.250000       1.00800           0
      5327 MEMB     41       POPC     H15C     HL       0.250000       1.00800           0
      5328 MEMB     41       POPC     C11      CTL2    -0.800000E-01   12.0110           0
      5329 MEMB     41       POPC     H11A     HAL2     0.900000E-01   1.00800           0
      5330 MEMB     41       POPC     H11B     HAL2     0.900000E-01   1.00800           0
      5331 MEMB     41       POPC     P        PL        1.50000       30.9740           0
      5332 MEMB     41       POPC     O13      O2L     -0.780000       15.9994           0
      5333 MEMB     41       POPC     O14      O2L     -0.780000       15.9994           0
      5334 MEMB     41       POPC     O12      OSLP    -0.570000       15.9994           0
      5335 MEMB     41       POPC     O11      OSLP    -0.570000       15.9994           0
      5336 MEMB     41       POPC     C1       CTL2    -0.800000E-01   12.0110           0
      5337 MEMB     41       POPC     HA       HAL2     0.900000E-01   1.00800           0
      5338 MEMB     41       POPC     HB       HAL2     0.900000E-01   1.00800           0
      5339 MEMB     41       POPC     C2       CTL1     0.170000       12.0110           0
      5340 MEMB     41       POPC     HS       HAL1     0.900000E-01   1.00800           0
      5341 MEMB     41       POPC     O21      OSL     -0.490000       15.9994           0
      5342 MEMB     41       POPC     C21      CL       0.900000       12.0110           0
      5343 MEMB     41       POPC     O22      OBL     -0.630000       15.9994           0
      5344 MEMB     41       POPC     C22      CTL2    -0.220000       12.0110           0
      5345 MEMB     41       POPC     H2R      HAL2     0.900000E-01   1.00800           0
      5346 MEMB     41       POPC     H2S      HAL2     0.900000E-01   1.00800           0
      5347 MEMB     41       POPC     C3       CTL2     0.800000E-01   12.0110           0
      5348 MEMB     41       POPC     HX       HAL2     0.900000E-01   1.00800           0
      5349 MEMB     41       POPC     HY       HAL2     0.900000E-01   1.00800           0
      5350 MEMB     41       POPC     O31      OSL     -0.490000       15.9994           0
      5351 MEMB     41       POPC     C31      CL       0.900000       12.0110           0
      5352 MEMB     41       POPC     O32      OBL     -0.630000       15.9994           0
      5353 MEMB     41       POPC     C32      CTL2    -0.220000       12.0110           0
      5354 MEMB     41       POPC     H2X      HAL2     0.900000E-01   1.00800           0
      5355 MEMB     41       POPC     H2Y      HAL2     0.900000E-01   1.00800           0
      5356 MEMB     41       POPC     C23      CTL2    -0.180000       12.0110           0
      5357 MEMB     41       POPC     H3R      HAL2     0.900000E-01   1.00800           0
      5358 MEMB     41       POPC     H3S      HAL2     0.900000E-01   1.00800           0
      5359 MEMB     41       POPC     C24      CTL2    -0.180000       12.0110           0
      5360 MEMB     41       POPC     H4R      HAL2     0.900000E-01   1.00800           0
      5361 MEMB     41       POPC     H4S      HAL2     0.900000E-01   1.00800           0
      5362 MEMB     41       POPC     C25      CTL2    -0.180000       12.0110           0
      5363 MEMB     41       POPC     H5R      HAL2     0.900000E-01   1.00800           0
      5364 MEMB     41       POPC     H5S      HAL2     0.900000E-01   1.00800           0
      5365 MEMB     41       POPC     C26      CTL2    -0.180000       12.0110           0
      5366 MEMB     41       POPC     H6R      HAL2     0.900000E-01   1.00800           0
      5367 MEMB     41       POPC     H6S      HAL2     0.900000E-01   1.00800           0
      5368 MEMB     41       POPC     C27      CTL2    -0.180000       12.0110           0
      5369 MEMB     41       POPC     H7R      HAL2     0.900000E-01   1.00800           0
      5370 MEMB     41       POPC     H7S      HAL2     0.900000E-01   1.00800           0
      5371 MEMB     41       POPC     C28      CTL2    -0.180000       12.0110           0
      5372 MEMB     41       POPC     H8R      HAL2     0.900000E-01   1.00800           0
      5373 MEMB     41       POPC     H8S      HAL2     0.900000E-01   1.00800           0
      5374 MEMB     41       POPC     C29      CEL1    -0.150000       12.0110           0
      5375 MEMB     41       POPC     H91      HEL1     0.150000       1.00800           0
      5376 MEMB     41       POPC     C210     CEL1    -0.150000       12.0110           0
      5377 MEMB     41       POPC     H101     HEL1     0.150000       1.00800           0
      5378 MEMB     41       POPC     C211     CTL2    -0.180000       12.0110           0
      5379 MEMB     41       POPC     H11R     HAL2     0.900000E-01   1.00800           0
      5380 MEMB     41       POPC     H11S     HAL2     0.900000E-01   1.00800           0
      5381 MEMB     41       POPC     C212     CTL2    -0.180000       12.0110           0
      5382 MEMB     41       POPC     H12R     HAL2     0.900000E-01   1.00800           0
      5383 MEMB     41       POPC     H12S     HAL2     0.900000E-01   1.00800           0
      5384 MEMB     41       POPC     C213     CTL2    -0.180000       12.0110           0
      5385 MEMB     41       POPC     H13R     HAL2     0.900000E-01   1.00800           0
      5386 MEMB     41       POPC     H13S     HAL2     0.900000E-01   1.00800           0
      5387 MEMB     41       POPC     C214     CTL2    -0.180000       12.0110           0
      5388 MEMB     41       POPC     H14R     HAL2     0.900000E-01   1.00800           0
      5389 MEMB     41       POPC     H14S     HAL2     0.900000E-01   1.00800           0
      5390 MEMB     41       POPC     C215     CTL2    -0.180000       12.0110           0
      5391 MEMB     41       POPC     H15R     HAL2     0.900000E-01   1.00800           0
      5392 MEMB     41       POPC     H15S     HAL2     0.900000E-01   1.00800           0
      5393 MEMB     41       POPC     C216     CTL2    -0.180000       12.0110           0
      5394 MEMB     41       POPC     H16R     HAL2     0.900000E-01   1.00800           0
      5395 MEMB     41       POPC     H16S     HAL2     0.900000E-01   1.00800           0
      5396 MEMB     41       POPC     C217     CTL2    -0.180000       12.0110           0
      5397 MEMB     41       POPC     H17R     HAL2     0.900000E-01   1.00800           0
      5398 MEMB     41       POPC     H17S     HAL2     0.900000E-01   1.00800           0
      5399 MEMB     41       POPC     C218     CTL3    -0.270000       12.0110           0
      5400 MEMB     41       POPC     H18R     HAL3     0.900000E-01   1.00800           0
      5401 MEMB     41       POPC     H18S     HAL3     0.900000E-01   1.00800           0
      5402 MEMB     41       POPC     H18T     HAL3     0.900000E-01   1.00800           0
      5403 MEMB     41       POPC     C33      CTL2    -0.180000       12.0110           0
      5404 MEMB     41       POPC     H3X      HAL2     0.900000E-01   1.00800           0
      5405 MEMB     41       POPC     H3Y      HAL2     0.900000E-01   1.00800           0
      5406 MEMB     41       POPC     C34      CTL2    -0.180000       12.0110           0
      5407 MEMB     41       POPC     H4X      HAL2     0.900000E-01   1.00800           0
      5408 MEMB     41       POPC     H4Y      HAL2     0.900000E-01   1.00800           0
      5409 MEMB     41       POPC     C35      CTL2    -0.180000       12.0110           0
      5410 MEMB     41       POPC     H5X      HAL2     0.900000E-01   1.00800           0
      5411 MEMB     41       POPC     H5Y      HAL2     0.900000E-01   1.00800           0
      5412 MEMB     41       POPC     C36      CTL2    -0.180000       12.0110           0
      5413 MEMB     41       POPC     H6X      HAL2     0.900000E-01   1.00800           0
      5414 MEMB     41       POPC     H6Y      HAL2     0.900000E-01   1.00800           0
      5415 MEMB     41       POPC     C37      CTL2    -0.180000       12.0110           0
      5416 MEMB     41       POPC     H7X      HAL2     0.900000E-01   1.00800           0
      5417 MEMB     41       POPC     H7Y      HAL2     0.900000E-01   1.00800           0
      5418 MEMB     41       POPC     C38      CTL2    -0.180000       12.0110           0
      5419 MEMB     41       POPC     H8X      HAL2     0.900000E-01   1.00800           0
      5420 MEMB     41       POPC     H8Y      HAL2     0.900000E-01   1.00800           0
      5421 MEMB     41       POPC     C39      CTL2    -0.180000       12.0110           0
      5422 MEMB     41       POPC     H9X      HAL2     0.900000E-01   1.00800           0
      5423 MEMB     41       POPC     H9Y      HAL2     0.900000E-01   1.00800           0
      5424 MEMB     41       POPC     C310     CTL2    -0.180000       12.0110           0
      5425 MEMB     41       POPC     H10X     HAL2     0.900000E-01   1.00800           0
      5426 MEMB     41       POPC     H10Y     HAL2     0.900000E-01   1.00800           0
      5427 MEMB     41       POPC     C311     CTL2    -0.180000       12.0110           0
      5428 MEMB     41       POPC     H11X     HAL2     0.900000E-01   1.00800           0
      5429 MEMB     41       POPC     H11Y     HAL2     0.900000E-01   1.00800           0
      5430 MEMB     41       POPC     C312     CTL2    -0.180000       12.0110           0
      5431 MEMB     41       POPC     H12X     HAL2     0.900000E-01   1.00800           0
      5432 MEMB     41       POPC     H12Y     HAL2     0.900000E-01   1.00800           0
      5433 MEMB     41       POPC     C313     CTL2    -0.180000       12.0110           0
      5434 MEMB     41       POPC     H13X     HAL2     0.900000E-01   1.00800           0
      5435 MEMB     41       POPC     H13Y     HAL2     0.900000E-01   1.00800           0
      5436 MEMB     41       POPC     C314     CTL2    -0.180000       12.0110           0
      5437 MEMB     41       POPC     H14X     HAL2     0.900000E-01   1.00800           0
      5438 MEMB     41       POPC     H14Y     HAL2     0.900000E-01   1.00800           0
      5439 MEMB     41       POPC     C315     CTL2    -0.180000       12.0110           0
      5440 MEMB     41       POPC     H15X     HAL2     0.900000E-01   1.00800           0
      5441 MEMB     41       POPC     H15Y     HAL2     0.900000E-01   1.00800           0
      5442 MEMB     41       POPC     C316     CTL3    -0.270000       12.0110           0
      5443 MEMB     41       POPC     H16X     HAL3     0.900000E-01   1.00800           0
      5444 MEMB     41       POPC     H16Y     HAL3     0.900000E-01   1.00800           0
      5445 MEMB     41       POPC     H16Z     HAL3     0.900000E-01   1.00800           0
      5446 MEMB     42       POPC     N        NTL     -0.600000       14.0070           0
      5447 MEMB     42       POPC     C12      CTL2    -0.100000       12.0110           0
      5448 MEMB     42       POPC     H12A     HL       0.250000       1.00800           0
      5449 MEMB     42       POPC     H12B     HL       0.250000       1.00800           0
      5450 MEMB     42       POPC     C13      CTL5    -0.350000       12.0110           0
      5451 MEMB     42       POPC     H13A     HL       0.250000       1.00800           0
      5452 MEMB     42       POPC     H13B     HL       0.250000       1.00800           0
      5453 MEMB     42       POPC     H13C     HL       0.250000       1.00800           0
      5454 MEMB     42       POPC     C14      CTL5    -0.350000       12.0110           0
      5455 MEMB     42       POPC     H14A     HL       0.250000       1.00800           0
      5456 MEMB     42       POPC     H14B     HL       0.250000       1.00800           0
      5457 MEMB     42       POPC     H14C     HL       0.250000       1.00800           0
      5458 MEMB     42       POPC     C15      CTL5    -0.350000       12.0110           0
      5459 MEMB     42       POPC     H15A     HL       0.250000       1.00800           0
      5460 MEMB     42       POPC     H15B     HL       0.250000       1.00800           0
      5461 MEMB     42       POPC     H15C     HL       0.250000       1.00800           0
      5462 MEMB     42       POPC     C11      CTL2    -0.800000E-01   12.0110           0
      5463 MEMB     42       POPC     H11A     HAL2     0.900000E-01   1.00800           0
      5464 MEMB     42       POPC     H11B     HAL2     0.900000E-01   1.00800           0
      5465 MEMB     42       POPC     P        PL        1.50000       30.9740           0
      5466 MEMB     42       POPC     O13      O2L     -0.780000       15.9994           0
      5467 MEMB     42       POPC     O14      O2L     -0.780000       15.9994           0
      5468 MEMB     42       POPC     O12      OSLP    -0.570000       15.9994           0
      5469 MEMB     42       POPC     O11      OSLP    -0.570000       15.9994           0
      5470 MEMB     42       POPC     C1       CTL2    -0.800000E-01   12.0110           0
      5471 MEMB     42       POPC     HA       HAL2     0.900000E-01   1.00800           0
      5472 MEMB     42       POPC     HB       HAL2     0.900000E-01   1.00800           0
      5473 MEMB     42       POPC     C2       CTL1     0.170000       12.0110           0
      5474 MEMB     42       POPC     HS       HAL1     0.900000E-01   1.00800           0
      5475 MEMB     42       POPC     O21      OSL     -0.490000       15.9994           0
      5476 MEMB     42       POPC     C21      CL       0.900000       12.0110           0
      5477 MEMB     42       POPC     O22      OBL     -0.630000       15.9994           0
      5478 MEMB     42       POPC     C22      CTL2    -0.220000       12.0110           0
      5479 MEMB     42       POPC     H2R      HAL2     0.900000E-01   1.00800           0
      5480 MEMB     42       POPC     H2S      HAL2     0.900000E-01   1.00800           0
      5481 MEMB     42       POPC     C3       CTL2     0.800000E-01   12.0110           0
      5482 MEMB     42       POPC     HX       HAL2     0.900000E-01   1.00800           0
      5483 MEMB     42       POPC     HY       HAL2     0.900000E-01   1.00800           0
      5484 MEMB     42       POPC     O31      OSL     -0.490000       15.9994           0
      5485 MEMB     42       POPC     C31      CL       0.900000       12.0110           0
      5486 MEMB     42       POPC     O32      OBL     -0.630000       15.9994           0
      5487 MEMB     42       POPC     C32      CTL2    -0.220000       12.0110           0
      5488 MEMB     42       POPC     H2X      HAL2     0.900000E-01   1.00800           0
      5489 MEMB     42       POPC     H2Y      HAL2     0.900000E-01   1.00800           0
      5490 MEMB     42       POPC     C23      CTL2    -0.180000       12.0110           0
      5491 MEMB     42       POPC     H3R      HAL2     0.900000E-01   1.00800           0
      5492 MEMB     42       POPC     H3S      HAL2     0.900000E-01   1.00800           0
      5493 MEMB     42       POPC     C24      CTL2    -0.180000       12.0110           0
      5494 MEMB     42       POPC     H4R      HAL2     0.900000E-01   1.00800           0
      5495 MEMB     42       POPC     H4S      HAL2     0.900000E-01   1.00800           0
      5496 MEMB     42       POPC     C25      CTL2    -0.180000       12.0110           0
      5497 MEMB     42       POPC     H5R      HAL2     0.900000E-01   1.00800           0
      5498 MEMB     42       POPC     H5S      HAL2     0.900000E-01   1.00800           0
      5499 MEMB     42       POPC     C26      CTL2    -0.180000       12.0110           0
      5500 MEMB     42       POPC     H6R      HAL2     0.900000E-01   1.00800           0
      5501 MEMB     42       POPC     H6S      HAL2     0.900000E-01   1.00800           0
      5502 MEMB     42       POPC     C27      CTL2    -0.180000       12.0110           0
      5503 MEMB     42       POPC     H7R      HAL2     0.900000E-01   1.00800           0
      5504 MEMB     42       POPC     H7S      HAL2     0.900000E-01   1.00800           0
      5505 MEMB     42       POPC     C28      CTL2    -0.180000       12.0110           0
      5506 MEMB     42       POPC     H8R      HAL2     0.900000E-01   1.00800           0
      5507 MEMB     42       POPC     H8S      HAL2     0.900000E-01   1.00800           0
      5508 MEMB     42       POPC     C29      CEL1    -0.150000       12.0110           0
      5509 MEMB     42       POPC     H91      HEL1     0.150000       1.00800           0
      5510 MEMB     42       POPC     C210     CEL1    -0.150000       12.0110           0
      5511 MEMB     42       POPC     H101     HEL1     0.150000       1.00800           0
      5512 MEMB     42       POPC     C211     CTL2    -0.180000       12.0110           0
      5513 MEMB     42       POPC     H11R     HAL2     0.900000E-01   1.00800           0
      5514 MEMB     42       POPC     H11S     HAL2     0.900000E-01   1.00800           0
      5515 MEMB     42       POPC     C212     CTL2    -0.180000       12.0110           0
      5516 MEMB     42       POPC     H12R     HAL2     0.900000E-01   1.00800           0
      5517 MEMB     42       POPC     H12S     HAL2     0.900000E-01   1.00800           0
      5518 MEMB     42       POPC     C213     CTL2    -0.180000       12.0110           0
      5519 MEMB     42       POPC     H13R     HAL2     0.900000E-01   1.00800           0
      5520 MEMB     42       POPC     H13S     HAL2     0.900000E-01   1.00800           0
      5521 MEMB     42       POPC     C214     CTL2    -0.180000       12.0110           0
      5522 MEMB     42       POPC     H14R     HAL2     0.900000E-01   1.00800           0
      5523 MEMB     42       POPC     H14S     HAL2     0.900000E-01   1.00800           0
      5524 MEMB     42       POPC     C215     CTL2    -0.180000       12.0110           0
      5525 MEMB     42       POPC     H15R     HAL2     0.900000E-01   1.00800           0
      5526 MEMB     42       POPC     H15S     HAL2     0.900000E-01   1.00800           0
      5527 MEMB     42       POPC     C216     CTL2    -0.180000       12.0110           0
      5528 MEMB     42       POPC     H16R     HAL2     0.900000E-01   1.00800           0
      5529 MEMB     42       POPC     H16S     HAL2     0.900000E-01   1.00800           0
      5530 MEMB     42       POPC     C217     CTL2    -0.180000       12.0110           0
      5531 MEMB     42       POPC     H17R     HAL2     0.900000E-01   1.00800           0
      5532 MEMB     42       POPC     H17S     HAL2     0.900000E-01   1.00800           0
      5533 MEMB     42       POPC     C218     CTL3    -0.270000       12.0110           0
      5534 MEMB     42       POPC     H18R     HAL3     0.900000E-01   1.00800           0
      5535 MEMB     42       POPC     H18S     HAL3     0.900000E-01   1.00800           0
      5536 MEMB     42       POPC     H18T     HAL3     0.900000E-01   1.00800           0
      5537 MEMB     42       POPC     C33      CTL2    -0.180000       12.0110           0
      5538 MEMB     42       POPC     H3X      HAL2     0.900000E-01   1.00800           0
      5539 MEMB     42       POPC     H3Y      HAL2     0.900000E-01   1.00800           0
      5540 MEMB     42       POPC     C34      CTL2    -0.180000       12.0110           0
      5541 MEMB     42       POPC     H4X      HAL2     0.900000E-01   1.00800           0
      5542 MEMB     42       POPC     H4Y      HAL2     0.900000E-01   1.00800           0
      5543 MEMB     42       POPC     C35      CTL2    -0.180000       12.0110           0
      5544 MEMB     42       POPC     H5X      HAL2     0.900000E-01   1.00800           0
      5545 MEMB     42       POPC     H5Y      HAL2     0.900000E-01   1.00800           0
      5546 MEMB     42       POPC     C36      CTL2    -0.180000       12.0110           0
      5547 MEMB     42       POPC     H6X      HAL2     0.900000E-01   1.00800           0
      5548 MEMB     42       POPC     H6Y      HAL2     0.900000E-01   1.00800           0
      5549 MEMB     42       POPC     C37      CTL2    -0.180000       12.0110           0
      5550 MEMB     42       POPC     H7X      HAL2     0.900000E-01   1.00800           0
      5551 MEMB     42       POPC     H7Y      HAL2     0.900000E-01   1.00800           0
      5552 MEMB     42       POPC     C38      CTL2    -0.180000       12.0110           0
      5553 MEMB     42       POPC     H8X      HAL2     0.900000E-01   1.00800           0
      5554 MEMB     42       POPC     H8Y      HAL2     0.900000E-01   1.00800           0
      5555 MEMB     42       POPC     C39      CTL2    -0.180000       12.0110           0
      5556 MEMB     42       POPC     H9X      HAL2     0.900000E-01   1.00800           0
      5557 MEMB     42       POPC     H9Y      HAL2     0.900000E-01   1.00800           0
      5558 MEMB     42       POPC     C310     CTL2    -0.180000       12.0110           0
      5559 MEMB     42       POPC     H10X     HAL2     0.900000E-01   1.00800           0
      5560 MEMB     42       POPC     H10Y     HAL2     0.900000E-01   1.00800           0
      5561 MEMB     42       POPC     C311     CTL2    -0.180000       12.0110           0
      5562 MEMB     42       POPC     H11X     HAL2     0.900000E-01   1.00800           0
      5563 MEMB     42       POPC     H11Y     HAL2     0.900000E-01   1.00800           0
      5564 MEMB     42       POPC     C312     CTL2    -0.180000       12.0110           0
      5565 MEMB     42       POPC     H12X     HAL2     0.900000E-01   1.00800           0
      5566 MEMB     42       POPC     H12Y     HAL2     0.900000E-01   1.00800           0
      5567 MEMB     42       POPC     C313     CTL2    -0.180000       12.0110           0
      5568 MEMB     42       POPC     H13X     HAL2     0.900000E-01   1.00800           0
      5569 MEMB     42       POPC     H13Y     HAL2     0.900000E-01   1.00800           0
      5570 MEMB     42       POPC     C314     CTL2    -0.180000       12.0110           0
      5571 MEMB     42       POPC     H14X     HAL2     0.900000E-01   1.00800           0
      5572 MEMB     42       POPC     H14Y     HAL2     0.900000E-01   1.00800           0
      5573 MEMB     42       POPC     C315     CTL2    -0.180000       12.0110           0
      5574 MEMB     42       POPC     H15X     HAL2     0.900000E-01   1.00800           0
      5575 MEMB     42       POPC     H15Y     HAL2     0.900000E-01   1.00800           0
      5576 MEMB     42       POPC     C316     CTL3    -0.270000       12.0110           0
      5577 MEMB     42       POPC     H16X     HAL3     0.900000E-01   1.00800           0
      5578 MEMB     42       POPC     H16Y     HAL3     0.900000E-01   1.00800           0
      5579 MEMB     42       POPC     H16Z     HAL3     0.900000E-01   1.00800           0
      5580 MEMB     43       POPC     N        NTL     -0.600000       14.0070           0
      5581 MEMB     43       POPC     C12      CTL2    -0.100000       12.0110           0
      5582 MEMB     43       POPC     H12A     HL       0.250000       1.00800           0
      5583 MEMB     43       POPC     H12B     HL       0.250000       1.00800           0
      5584 MEMB     43       POPC     C13      CTL5    -0.350000       12.0110           0
      5585 MEMB     43       POPC     H13A     HL       0.250000       1.00800           0
      5586 MEMB     43       POPC     H13B     HL       0.250000       1.00800           0
      5587 MEMB     43       POPC     H13C     HL       0.250000       1.00800           0
      5588 MEMB     43       POPC     C14      CTL5    -0.350000       12.0110           0
      5589 MEMB     43       POPC     H14A     HL       0.250000       1.00800           0
      5590 MEMB     43       POPC     H14B     HL       0.250000       1.00800           0
      5591 MEMB     43       POPC     H14C     HL       0.250000       1.00800           0
      5592 MEMB     43       POPC     C15      CTL5    -0.350000       12.0110           0
      5593 MEMB     43       POPC     H15A     HL       0.250000       1.00800           0
      5594 MEMB     43       POPC     H15B     HL       0.250000       1.00800           0
      5595 MEMB     43       POPC     H15C     HL       0.250000       1.00800           0
      5596 MEMB     43       POPC     C11      CTL2    -0.800000E-01   12.0110           0
      5597 MEMB     43       POPC     H11A     HAL2     0.900000E-01   1.00800           0
      5598 MEMB     43       POPC     H11B     HAL2     0.900000E-01   1.00800           0
      5599 MEMB     43       POPC     P        PL        1.50000       30.9740           0
      5600 MEMB     43       POPC     O13      O2L     -0.780000       15.9994           0
      5601 MEMB     43       POPC     O14      O2L     -0.780000       15.9994           0
      5602 MEMB     43       POPC     O12      OSLP    -0.570000       15.9994           0
      5603 MEMB     43       POPC     O11      OSLP    -0.570000       15.9994           0
      5604 MEMB     43       POPC     C1       CTL2    -0.800000E-01   12.0110           0
      5605 MEMB     43       POPC     HA       HAL2     0.900000E-01   1.00800           0
      5606 MEMB     43       POPC     HB       HAL2     0.900000E-01   1.00800           0
      5607 MEMB     43       POPC     C2       CTL1     0.170000       12.0110           0
      5608 MEMB     43       POPC     HS       HAL1     0.900000E-01   1.00800           0
      5609 MEMB     43       POPC     O21      OSL     -0.490000       15.9994           0
      5610 MEMB     43       POPC     C21      CL       0.900000       12.0110           0
      5611 MEMB     43       POPC     O22      OBL     -0.630000       15.9994           0
      5612 MEMB     43       POPC     C22      CTL2    -0.220000       12.0110           0
      5613 MEMB     43       POPC     H2R      HAL2     0.900000E-01   1.00800           0
      5614 MEMB     43       POPC     H2S      HAL2     0.900000E-01   1.00800           0
      5615 MEMB     43       POPC     C3       CTL2     0.800000E-01   12.0110           0
      5616 MEMB     43       POPC     HX       HAL2     0.900000E-01   1.00800           0
      5617 MEMB     43       POPC     HY       HAL2     0.900000E-01   1.00800           0
      5618 MEMB     43       POPC     O31      OSL     -0.490000       15.9994           0
      5619 MEMB     43       POPC     C31      CL       0.900000       12.0110           0
      5620 MEMB     43       POPC     O32      OBL     -0.630000       15.9994           0
      5621 MEMB     43       POPC     C32      CTL2    -0.220000       12.0110           0
      5622 MEMB     43       POPC     H2X      HAL2     0.900000E-01   1.00800           0
      5623 MEMB     43       POPC     H2Y      HAL2     0.900000E-01   1.00800           0
      5624 MEMB     43       POPC     C23      CTL2    -0.180000       12.0110           0
      5625 MEMB     43       POPC     H3R      HAL2     0.900000E-01   1.00800           0
      5626 MEMB     43       POPC     H3S      HAL2     0.900000E-01   1.00800           0
      5627 MEMB     43       POPC     C24      CTL2    -0.180000       12.0110           0
      5628 MEMB     43       POPC     H4R      HAL2     0.900000E-01   1.00800           0
      5629 MEMB     43       POPC     H4S      HAL2     0.900000E-01   1.00800           0
      5630 MEMB     43       POPC     C25      CTL2    -0.180000       12.0110           0
      5631 MEMB     43       POPC     H5R      HAL2     0.900000E-01   1.00800           0
      5632 MEMB     43       POPC     H5S      HAL2     0.900000E-01   1.00800           0
      5633 MEMB     43       POPC     C26      CTL2    -0.180000       12.0110           0
      5634 MEMB     43       POPC     H6R      HAL2     0.900000E-01   1.00800           0
      5635 MEMB     43       POPC     H6S      HAL2     0.900000E-01   1.00800           0
      5636 MEMB     43       POPC     C27      CTL2    -0.180000       12.0110           0
      5637 MEMB     43       POPC     H7R      HAL2     0.900000E-01   1.00800           0
      5638 MEMB     43       POPC     H7S      HAL2     0.900000E-01   1.00800           0
      5639 MEMB     43       POPC     C28      CTL2    -0.180000       12.0110           0
      5640 MEMB     43       POPC     H8R      HAL2     0.900000E-01   1.00800           0
      5641 MEMB     43       POPC     H8S      HAL2     0.900000E-01   1.00800           0
      5642 MEMB     43       POPC     C29      CEL1    -0.150000       12.0110           0
      5643 MEMB     43       POPC     H91      HEL1     0.150000       1.00800           0
      5644 MEMB     43       POPC     C210     CEL1    -0.150000       12.0110           0
      5645 MEMB     43       POPC     H101     HEL1     0.150000       1.00800           0
      5646 MEMB     43       POPC     C211     CTL2    -0.180000       12.0110           0
      5647 MEMB     43       POPC     H11R     HAL2     0.900000E-01   1.00800           0
      5648 MEMB     43       POPC     H11S     HAL2     0.900000E-01   1.00800           0
      5649 MEMB     43       POPC     C212     CTL2    -0.180000       12.0110           0
      5650 MEMB     43       POPC     H12R     HAL2     0.900000E-01   1.00800           0
      5651 MEMB     43       POPC     H12S     HAL2     0.900000E-01   1.00800           0
      5652 MEMB     43       POPC     C213     CTL2    -0.180000       12.0110           0
      5653 MEMB     43       POPC     H13R     HAL2     0.900000E-01   1.00800           0
      5654 MEMB     43       POPC     H13S     HAL2     0.900000E-01   1.00800           0
      5655 MEMB     43       POPC     C214     CTL2    -0.180000       12.0110           0
      5656 MEMB     43       POPC     H14R     HAL2     0.900000E-01   1.00800           0
      5657 MEMB     43       POPC     H14S     HAL2     0.900000E-01   1.00800           0
      5658 MEMB     43       POPC     C215     CTL2    -0.180000       12.0110           0
      5659 MEMB     43       POPC     H15R     HAL2     0.900000E-01   1.00800           0
      5660 MEMB     43       POPC     H15S     HAL2     0.900000E-01   1.00800           0
      5661 MEMB     43       POPC     C216     CTL2    -0.180000       12.0110           0
      5662 MEMB     43       POPC     H16R     HAL2     0.900000E-01   1.00800           0
      5663 MEMB     43       POPC     H16S     HAL2     0.900000E-01   1.00800           0
      5664 MEMB     43       POPC     C217     CTL2    -0.180000       12.0110           0
      5665 MEMB     43       POPC     H17R     HAL2     0.900000E-01   1.00800           0
      5666 MEMB     43       POPC     H17S     HAL2     0.900000E-01   1.00800           0
      5667 MEMB     43       POPC     C218     CTL3    -0.270000       12.0110           0
      5668 MEMB     43       POPC     H18R     HAL3     0.900000E-01   1.00800           0
      5669 MEMB     43       POPC     H18S     HAL3     0.900000E-01   1.00800           0
      5670 MEMB     43       POPC     H18T     HAL3     0.900000E-01   1.00800           0
      5671 MEMB     43       POPC     C33      CTL2    -0.180000       12.0110           0
      5672 MEMB     43       POPC     H3X      HAL2     0.900000E-01   1.00800           0
      5673 MEMB     43       POPC     H3Y      HAL2     0.900000E-01   1.00800           0
      5674 MEMB     43       POPC     C34      CTL2    -0.180000       12.0110           0
      5675 MEMB     43       POPC     H4X      HAL2     0.900000E-01   1.00800           0
      5676 MEMB     43       POPC     H4Y      HAL2     0.900000E-01   1.00800           0
      5677 MEMB     43       POPC     C35      CTL2    -0.180000       12.0110           0
      5678 MEMB     43       POPC     H5X      HAL2     0.900000E-01   1.00800           0
      5679 MEMB     43       POPC     H5Y      HAL2     0.900000E-01   1.00800           0
      5680 MEMB     43       POPC     C36      CTL2    -0.180000       12.0110           0
      5681 MEMB     43       POPC     H6X      HAL2     0.900000E-01   1.00800           0
      5682 MEMB     43       POPC     H6Y      HAL2     0.900000E-01   1.00800           0
      5683 MEMB     43       POPC     C37      CTL2    -0.180000       12.0110           0
      5684 MEMB     43       POPC     H7X      HAL2     0.900000E-01   1.00800           0
      5685 MEMB     43       POPC     H7Y      HAL2     0.900000E-01   1.00800           0
      5686 MEMB     43       POPC     C38      CTL2    -0.180000       12.0110           0
      5687 MEMB     43       POPC     H8X      HAL2     0.900000E-01   1.00800           0
      5688 MEMB     43       POPC     H8Y      HAL2     0.900000E-01   1.00800           0
      5689 MEMB     43       POPC     C39      CTL2    -0.180000       12.0110           0
      5690 MEMB     43       POPC     H9X      HAL2     0.900000E-01   1.00800           0
      5691 MEMB     43       POPC     H9Y      HAL2     0.900000E-01   1.00800           0
      5692 MEMB     43       POPC     C310     CTL2    -0.180000       12.0110           0
      5693 MEMB     43       POPC     H10X     HAL2     0.900000E-01   1.00800           0
      5694 MEMB     43       POPC     H10Y     HAL2     0.900000E-01   1.00800           0
      5695 MEMB     43       POPC     C311     CTL2    -0.180000       12.0110           0
      5696 MEMB     43       POPC     H11X     HAL2     0.900000E-01   1.00800           0
      5697 MEMB     43       POPC     H11Y     HAL2     0.900000E-01   1.00800           0
      5698 MEMB     43       POPC     C312     CTL2    -0.180000       12.0110           0
      5699 MEMB     43       POPC     H12X     HAL2     0.900000E-01   1.00800           0
      5700 MEMB     43       POPC     H12Y     HAL2     0.900000E-01   1.00800           0
      5701 MEMB     43       POPC     C313     CTL2    -0.180000       12.0110           0
      5702 MEMB     43       POPC     H13X     HAL2     0.900000E-01   1.00800           0
      5703 MEMB     43       POPC     H13Y     HAL2     0.900000E-01   1.00800           0
      5704 MEMB     43       POPC     C314     CTL2    -0.180000       12.0110           0
      5705 MEMB     43       POPC     H14X     HAL2     0.900000E-01   1.00800           0
      5706 MEMB     43       POPC     H14Y     HAL2     0.900000E-01   1.00800           0
      5707 MEMB     43       POPC     C315     CTL2    -0.180000       12.0110           0
      5708 MEMB     43       POPC     H15X     HAL2     0.900000E-01   1.00800           0
      5709 MEMB     43       POPC     H15Y     HAL2     0.900000E-01   1.00800           0
      5710 MEMB     43       POPC     C316     CTL3    -0.270000       12.0110           0
      5711 MEMB     43       POPC     H16X     HAL3     0.900000E-01   1.00800           0
      5712 MEMB     43       POPC     H16Y     HAL3     0.900000E-01   1.00800           0
      5713 MEMB     43       POPC     H16Z     HAL3     0.900000E-01   1.00800           0
      5714 MEMB     44       POPC     N        NTL     -0.600000       14.0070           0
      5715 MEMB     44       POPC     C12      CTL2    -0.100000       12.0110           0
      5716 MEMB     44       POPC     H12A     HL       0.250000       1.00800           0
      5717 MEMB     44       POPC     H12B     HL       0.250000       1.00800           0
      5718 MEMB     44       POPC     C13      CTL5    -0.350000       12.0110           0
      5719 MEMB     44       POPC     H13A     HL       0.250000       1.00800           0
      5720 MEMB     44       POPC     H13B     HL       0.250000       1.00800           0
      5721 MEMB     44       POPC     H13C     HL       0.250000       1.00800           0
      5722 MEMB     44       POPC     C14      CTL5    -0.350000       12.0110           0
      5723 MEMB     44       POPC     H14A     HL       0.250000       1.00800           0
      5724 MEMB     44       POPC     H14B     HL       0.250000       1.00800           0
      5725 MEMB     44       POPC     H14C     HL       0.250000       1.00800           0
      5726 MEMB     44       POPC     C15      CTL5    -0.350000       12.0110           0
      5727 MEMB     44       POPC     H15A     HL       0.250000       1.00800           0
      5728 MEMB     44       POPC     H15B     HL       0.250000       1.00800           0
      5729 MEMB     44       POPC     H15C     HL       0.250000       1.00800           0
      5730 MEMB     44       POPC     C11      CTL2    -0.800000E-01   12.0110           0
      5731 MEMB     44       POPC     H11A     HAL2     0.900000E-01   1.00800           0
      5732 MEMB     44       POPC     H11B     HAL2     0.900000E-01   1.00800           0
      5733 MEMB     44       POPC     P        PL        1.50000       30.9740           0
      5734 MEMB     44       POPC     O13      O2L     -0.780000       15.9994           0
      5735 MEMB     44       POPC     O14      O2L     -0.780000       15.9994           0
      5736 MEMB     44       POPC     O12      OSLP    -0.570000       15.9994           0
      5737 MEMB     44       POPC     O11      OSLP    -0.570000       15.9994           0
      5738 MEMB     44       POPC     C1       CTL2    -0.800000E-01   12.0110           0
      5739 MEMB     44       POPC     HA       HAL2     0.900000E-01   1.00800           0
      5740 MEMB     44       POPC     HB       HAL2     0.900000E-01   1.00800           0
      5741 MEMB     44       POPC     C2       CTL1     0.170000       12.0110           0
      5742 MEMB     44       POPC     HS       HAL1     0.900000E-01   1.00800           0
      5743 MEMB     44       POPC     O21      OSL     -0.490000       15.9994           0
      5744 MEMB     44       POPC     C21      CL       0.900000       12.0110           0
      5745 MEMB     44       POPC     O22      OBL     -0.630000       15.9994           0
      5746 MEMB     44       POPC     C22      CTL2    -0.220000       12.0110           0
      5747 MEMB     44       POPC     H2R      HAL2     0.900000E-01   1.00800           0
      5748 MEMB     44       POPC     H2S      HAL2     0.900000E-01   1.00800           0
      5749 MEMB     44       POPC     C3       CTL2     0.800000E-01   12.0110           0
      5750 MEMB     44       POPC     HX       HAL2     0.900000E-01   1.00800           0
      5751 MEMB     44       POPC     HY       HAL2     0.900000E-01   1.00800           0
      5752 MEMB     44       POPC     O31      OSL     -0.490000       15.9994           0
      5753 MEMB     44       POPC     C31      CL       0.900000       12.0110           0
      5754 MEMB     44       POPC     O32      OBL     -0.630000       15.9994           0
      5755 MEMB     44       POPC     C32      CTL2    -0.220000       12.0110           0
      5756 MEMB     44       POPC     H2X      HAL2     0.900000E-01   1.00800           0
      5757 MEMB     44       POPC     H2Y      HAL2     0.900000E-01   1.00800           0
      5758 MEMB     44       POPC     C23      CTL2    -0.180000       12.0110           0
      5759 MEMB     44       POPC     H3R      HAL2     0.900000E-01   1.00800           0
      5760 MEMB     44       POPC     H3S      HAL2     0.900000E-01   1.00800           0
      5761 MEMB     44       POPC     C24      CTL2    -0.180000       12.0110           0
      5762 MEMB     44       POPC     H4R      HAL2     0.900000E-01   1.00800           0
      5763 MEMB     44       POPC     H4S      HAL2     0.900000E-01   1.00800           0
      5764 MEMB     44       POPC     C25      CTL2    -0.180000       12.0110           0
      5765 MEMB     44       POPC     H5R      HAL2     0.900000E-01   1.00800           0
      5766 MEMB     44       POPC     H5S      HAL2     0.900000E-01   1.00800           0
      5767 MEMB     44       POPC     C26      CTL2    -0.180000       12.0110           0
      5768 MEMB     44       POPC     H6R      HAL2     0.900000E-01   1.00800           0
      5769 MEMB     44       POPC     H6S      HAL2     0.900000E-01   1.00800           0
      5770 MEMB     44       POPC     C27      CTL2    -0.180000       12.0110           0
      5771 MEMB     44       POPC     H7R      HAL2     0.900000E-01   1.00800           0
      5772 MEMB     44       POPC     H7S      HAL2     0.900000E-01   1.00800           0
      5773 MEMB     44       POPC     C28      CTL2    -0.180000       12.0110           0
      5774 MEMB     44       POPC     H8R      HAL2     0.900000E-01   1.00800           0
      5775 MEMB     44       POPC     H8S      HAL2     0.900000E-01   1.00800           0
      5776 MEMB     44       POPC     C29      CEL1    -0.150000       12.0110           0
      5777 MEMB     44       POPC     H91      HEL1     0.150000       1.00800           0
      5778 MEMB     44       POPC     C210     CEL1    -0.150000       12.0110           0
      5779 MEMB     44       POPC     H101     HEL1     0.150000       1.00800           0
      5780 MEMB     44       POPC     C211     CTL2    -0.180000       12.0110           0
      5781 MEMB     44       POPC     H11R     HAL2     0.900000E-01   1.00800           0
      5782 MEMB     44       POPC     H11S     HAL2     0.900000E-01   1.00800           0
      5783 MEMB     44       POPC     C212     CTL2    -0.180000       12.0110           0
      5784 MEMB     44       POPC     H12R     HAL2     0.900000E-01   1.00800           0
      5785 MEMB     44       POPC     H12S     HAL2     0.900000E-01   1.00800           0
      5786 MEMB     44       POPC     C213     CTL2    -0.180000       12.0110           0
      5787 MEMB     44       POPC     H13R     HAL2     0.900000E-01   1.00800           0
      5788 MEMB     44       POPC     H13S     HAL2     0.900000E-01   1.00800           0
      5789 MEMB     44       POPC     C214     CTL2    -0.180000       12.0110           0
      5790 MEMB     44       POPC     H14R     HAL2     0.900000E-01   1.00800           0
      5791 MEMB     44       POPC     H14S     HAL2     0.900000E-01   1.00800           0
      5792 MEMB     44       POPC     C215     CTL2    -0.180000       12.0110           0
      5793 MEMB     44       POPC     H15R     HAL2     0.900000E-01   1.00800           0
      5794 MEMB     44       POPC     H15S     HAL2     0.900000E-01   1.00800           0
      5795 MEMB     44       POPC     C216     CTL2    -0.180000       12.0110           0
      5796 MEMB     44       POPC     H16R     HAL2     0.900000E-01   1.00800           0
      5797 MEMB     44       POPC     H16S     HAL2     0.900000E-01   1.00800           0
      5798 MEMB     44       POPC     C217     CTL2    -0.180000       12.0110           0
      5799 MEMB     44       POPC     H17R     HAL2     0.900000E-01   1.00800           0
      5800 MEMB     44       POPC     H17S     HAL2     0.900000E-01   1.00800           0
      5801 MEMB     44       POPC     C218     CTL3    -0.270000       12.0110           0
      5802 MEMB     44       POPC     H18R     HAL3     0.900000E-01   1.00800           0
      5803 MEMB     44       POPC     H18S     HAL3     0.900000E-01   1.00800           0
      5804 MEMB     44       POPC     H18T     HAL3     0.900000E-01   1.00800           0
      5805 MEMB     44       POPC     C33      CTL2    -0.180000       12.0110           0
      5806 MEMB     44       POPC     H3X      HAL2     0.900000E-01   1.00800           0
      5807 MEMB     44       POPC     H3Y      HAL2     0.900000E-01   1.00800           0
      5808 MEMB     44       POPC     C34      CTL2    -0.180000       12.0110           0
      5809 MEMB     44       POPC     H4X      HAL2     0.900000E-01   1.00800           0
      5810 MEMB     44       POPC     H4Y      HAL2     0.900000E-01   1.00800           0
      5811 MEMB     44       POPC     C35      CTL2    -0.180000       12.0110           0
      5812 MEMB     44       POPC     H5X      HAL2     0.900000E-01   1.00800           0
      5813 MEMB     44       POPC     H5Y      HAL2     0.900000E-01   1.00800           0
      5814 MEMB     44       POPC     C36      CTL2    -0.180000       12.0110           0
      5815 MEMB     44       POPC     H6X      HAL2     0.900000E-01   1.00800           0
      5816 MEMB     44       POPC     H6Y      HAL2     0.900000E-01   1.00800           0
      5817 MEMB     44       POPC     C37      CTL2    -0.180000       12.0110           0
      5818 MEMB     44       POPC     H7X      HAL2     0.900000E-01   1.00800           0
      5819 MEMB     44       POPC     H7Y      HAL2     0.900000E-01   1.00800           0
      5820 MEMB     44       POPC     C38      CTL2    -0.180000       12.0110           0
      5821 MEMB     44       POPC     H8X      HAL2     0.900000E-01   1.00800           0
      5822 MEMB     44       POPC     H8Y      HAL2     0.900000E-01   1.00800           0
      5823 MEMB     44       POPC     C39      CTL2    -0.180000       12.0110           0
      5824 MEMB     44       POPC     H9X      HAL2     0.900000E-01   1.00800           0
      5825 MEMB     44       POPC     H9Y      HAL2     0.900000E-01   1.00800           0
      5826 MEMB     44       POPC     C310     CTL2    -0.180000       12.0110           0
      5827 MEMB     44       POPC     H10X     HAL2     0.900000E-01   1.00800           0
      5828 MEMB     44       POPC     H10Y     HAL2     0.900000E-01   1.00800           0
      5829 MEMB     44       POPC     C311     CTL2    -0.180000       12.0110           0
      5830 MEMB     44       POPC     H11X     HAL2     0.900000E-01   1.00800           0
      5831 MEMB     44       POPC     H11Y     HAL2     0.900000E-01   1.00800           0
      5832 MEMB     44       POPC     C312     CTL2    -0.180000       12.0110           0
      5833 MEMB     44       POPC     H12X     HAL2     0.900000E-01   1.00800           0
      5834 MEMB     44       POPC     H12Y     HAL2     0.900000E-01   1.00800           0
      5835 MEMB     44       POPC     C313     CTL2    -0.180000       12.0110           0
      5836 MEMB     44       POPC     H13X     HAL2     0.900000E-01   1.00800           0
      5837 MEMB     44       POPC     H13Y     HAL2     0.900000E-01   1.00800           0
      5838 MEMB     44       POPC     C314     CTL2    -0.180000       12.0110           0
      5839 MEMB     44       POPC     H14X     HAL2     0.900000E-01   1.00800           0
      5840 MEMB     44       POPC     H14Y     HAL2     0.900000E-01   1.00800           0
      5841 MEMB     44       POPC     C315     CTL2    -0.180000       12.0110           0
      5842 MEMB     44       POPC     H15X     HAL2     0.900000E-01   1.00800           0
      5843 MEMB     44       POPC     H15Y     HAL2     0.900000E-01   1.00800           0
      5844 MEMB     44       POPC     C316     CTL3    -0.270000       12.0110           0
      5845 MEMB     44       POPC     H16X     HAL3     0.900000E-01   1.00800           0
      5846 MEMB     44       POPC     H16Y     HAL3     0.900000E-01   1.00800           0
      5847 MEMB     44       POPC     H16Z     HAL3     0.900000E-01   1.00800           0
      5848 MEMB     45       POPC     N        NTL     -0.600000       14.0070           0
      5849 MEMB     45       POPC     C12      CTL2    -0.100000       12.0110           0
      5850 MEMB     45       POPC     H12A     HL       0.250000       1.00800           0
      5851 MEMB     45       POPC     H12B     HL       0.250000       1.00800           0
      5852 MEMB     45       POPC     C13      CTL5    -0.350000       12.0110           0
      5853 MEMB     45       POPC     H13A     HL       0.250000       1.00800           0
      5854 MEMB     45       POPC     H13B     HL       0.250000       1.00800           0
      5855 MEMB     45       POPC     H13C     HL       0.250000       1.00800           0
      5856 MEMB     45       POPC     C14      CTL5    -0.350000       12.0110           0
      5857 MEMB     45       POPC     H14A     HL       0.250000       1.00800           0
      5858 MEMB     45       POPC     H14B     HL       0.250000       1.00800           0
      5859 MEMB     45       POPC     H14C     HL       0.250000       1.00800           0
      5860 MEMB     45       POPC     C15      CTL5    -0.350000       12.0110           0
      5861 MEMB     45       POPC     H15A     HL       0.250000       1.00800           0
      5862 MEMB     45       POPC     H15B     HL       0.250000       1.00800           0
      5863 MEMB     45       POPC     H15C     HL       0.250000       1.00800           0
      5864 MEMB     45       POPC     C11      CTL2    -0.800000E-01   12.0110           0
      5865 MEMB     45       POPC     H11A     HAL2     0.900000E-01   1.00800           0
      5866 MEMB     45       POPC     H11B     HAL2     0.900000E-01   1.00800           0
      5867 MEMB     45       POPC     P        PL        1.50000       30.9740           0
      5868 MEMB     45       POPC     O13      O2L     -0.780000       15.9994           0
      5869 MEMB     45       POPC     O14      O2L     -0.780000       15.9994           0
      5870 MEMB     45       POPC     O12      OSLP    -0.570000       15.9994           0
      5871 MEMB     45       POPC     O11      OSLP    -0.570000       15.9994           0
      5872 MEMB     45       POPC     C1       CTL2    -0.800000E-01   12.0110           0
      5873 MEMB     45       POPC     HA       HAL2     0.900000E-01   1.00800           0
      5874 MEMB     45       POPC     HB       HAL2     0.900000E-01   1.00800           0
      5875 MEMB     45       POPC     C2       CTL1     0.170000       12.0110           0
      5876 MEMB     45       POPC     HS       HAL1     0.900000E-01   1.00800           0
      5877 MEMB     45       POPC     O21      OSL     -0.490000       15.9994           0
      5878 MEMB     45       POPC     C21      CL       0.900000       12.0110           0
      5879 MEMB     45       POPC     O22      OBL     -0.630000       15.9994           0
      5880 MEMB     45       POPC     C22      CTL2    -0.220000       12.0110           0
      5881 MEMB     45       POPC     H2R      HAL2     0.900000E-01   1.00800           0
      5882 MEMB     45       POPC     H2S      HAL2     0.900000E-01   1.00800           0
      5883 MEMB     45       POPC     C3       CTL2     0.800000E-01   12.0110           0
      5884 MEMB     45       POPC     HX       HAL2     0.900000E-01   1.00800           0
      5885 MEMB     45       POPC     HY       HAL2     0.900000E-01   1.00800           0
      5886 MEMB     45       POPC     O31      OSL     -0.490000       15.9994           0
      5887 MEMB     45       POPC     C31      CL       0.900000       12.0110           0
      5888 MEMB     45       POPC     O32      OBL     -0.630000       15.9994           0
      5889 MEMB     45       POPC     C32      CTL2    -0.220000       12.0110           0
      5890 MEMB     45       POPC     H2X      HAL2     0.900000E-01   1.00800           0
      5891 MEMB     45       POPC     H2Y      HAL2     0.900000E-01   1.00800           0
      5892 MEMB     45       POPC     C23      CTL2    -0.180000       12.0110           0
      5893 MEMB     45       POPC     H3R      HAL2     0.900000E-01   1.00800           0
      5894 MEMB     45       POPC     H3S      HAL2     0.900000E-01   1.00800           0
      5895 MEMB     45       POPC     C24      CTL2    -0.180000       12.0110           0
      5896 MEMB     45       POPC     H4R      HAL2     0.900000E-01   1.00800           0
      5897 MEMB     45       POPC     H4S      HAL2     0.900000E-01   1.00800           0
      5898 MEMB     45       POPC     C25      CTL2    -0.180000       12.0110           0
      5899 MEMB     45       POPC     H5R      HAL2     0.900000E-01   1.00800           0
      5900 MEMB     45       POPC     H5S      HAL2     0.900000E-01   1.00800           0
      5901 MEMB     45       POPC     C26      CTL2    -0.180000       12.0110           0
      5902 MEMB     45       POPC     H6R      HAL2     0.900000E-01   1.00800           0
      5903 MEMB     45       POPC     H6S      HAL2     0.900000E-01   1.00800           0
      5904 MEMB     45       POPC     C27      CTL2    -0.180000       12.0110           0
      5905 MEMB     45       POPC     H7R      HAL2     0.900000E-01   1.00800           0
      5906 MEMB     45       POPC     H7S      HAL2     0.900000E-01   1.00800           0
      5907 MEMB     45       POPC     C28      CTL2    -0.180000       12.0110           0
      5908 MEMB     45       POPC     H8R      HAL2     0.900000E-01   1.00800           0
      5909 MEMB     45       POPC     H8S      HAL2     0.900000E-01   1.00800           0
      5910 MEMB     45       POPC     C29      CEL1    -0.150000       12.0110           0
      5911 MEMB     45       POPC     H91      HEL1     0.150000       1.00800           0
      5912 MEMB     45       POPC     C210     CEL1    -0.150000       12.0110           0
      5913 MEMB     45       POPC     H101     HEL1     0.150000       1.00800           0
      5914 MEMB     45       POPC     C211     CTL2    -0.180000       12.0110           0
      5915 MEMB     45       POPC     H11R     HAL2     0.900000E-01   1.00800           0
      5916 MEMB     45       POPC     H11S     HAL2     0.900000E-01   1.00800           0
      5917 MEMB     45       POPC     C212     CTL2    -0.180000       12.0110           0
      5918 MEMB     45       POPC     H12R     HAL2     0.900000E-01   1.00800           0
      5919 MEMB     45       POPC     H12S     HAL2     0.900000E-01   1.00800           0
      5920 MEMB     45       POPC     C213     CTL2    -0.180000       12.0110           0
      5921 MEMB     45       POPC     H13R     HAL2     0.900000E-01   1.00800           0
      5922 MEMB     45       POPC     H13S     HAL2     0.900000E-01   1.00800           0
      5923 MEMB     45       POPC     C214     CTL2    -0.180000       12.0110           0
      5924 MEMB     45       POPC     H14R     HAL2     0.900000E-01   1.00800           0
      5925 MEMB     45       POPC     H14S     HAL2     0.900000E-01   1.00800           0
      5926 MEMB     45       POPC     C215     CTL2    -0.180000       12.0110           0
      5927 MEMB     45       POPC     H15R     HAL2     0.900000E-01   1.00800           0
      5928 MEMB     45       POPC     H15S     HAL2     0.900000E-01   1.00800           0
      5929 MEMB     45       POPC     C216     CTL2    -0.180000       12.0110           0
      5930 MEMB     45       POPC     H16R     HAL2     0.900000E-01   1.00800           0
      5931 MEMB     45       POPC     H16S     HAL2     0.900000E-01   1.00800           0
      5932 MEMB     45       POPC     C217     CTL2    -0.180000       12.0110           0
      5933 MEMB     45       POPC     H17R     HAL2     0.900000E-01   1.00800           0
      5934 MEMB     45       POPC     H17S     HAL2     0.900000E-01   1.00800           0
      5935 MEMB     45       POPC     C218     CTL3    -0.270000       12.0110           0
      5936 MEMB     45       POPC     H18R     HAL3     0.900000E-01   1.00800           0
      5937 MEMB     45       POPC     H18S     HAL3     0.900000E-01   1.00800           0
      5938 MEMB     45       POPC     H18T     HAL3     0.900000E-01   1.00800           0
      5939 MEMB     45       POPC     C33      CTL2    -0.180000       12.0110           0
      5940 MEMB     45       POPC     H3X      HAL2     0.900000E-01   1.00800           0
      5941 MEMB     45       POPC     H3Y      HAL2     0.900000E-01   1.00800           0
      5942 MEMB     45       POPC     C34      CTL2    -0.180000       12.0110           0
      5943 MEMB     45       POPC     H4X      HAL2     0.900000E-01   1.00800           0
      5944 MEMB     45       POPC     H4Y      HAL2     0.900000E-01   1.00800           0
      5945 MEMB     45       POPC     C35      CTL2    -0.180000       12.0110           0
      5946 MEMB     45       POPC     H5X      HAL2     0.900000E-01   1.00800           0
      5947 MEMB     45       POPC     H5Y      HAL2     0.900000E-01   1.00800           0
      5948 MEMB     45       POPC     C36      CTL2    -0.180000       12.0110           0
      5949 MEMB     45       POPC     H6X      HAL2     0.900000E-01   1.00800           0
      5950 MEMB     45       POPC     H6Y      HAL2     0.900000E-01   1.00800           0
      5951 MEMB     45       POPC     C37      CTL2    -0.180000       12.0110           0
      5952 MEMB     45       POPC     H7X      HAL2     0.900000E-01   1.00800           0
      5953 MEMB     45       POPC     H7Y      HAL2     0.900000E-01   1.00800           0
      5954 MEMB     45       POPC     C38      CTL2    -0.180000       12.0110           0
      5955 MEMB     45       POPC     H8X      HAL2     0.900000E-01   1.00800           0
      5956 MEMB     45       POPC     H8Y      HAL2     0.900000E-01   1.00800           0
      5957 MEMB     45       POPC     C39      CTL2    -0.180000       12.0110           0
      5958 MEMB     45       POPC     H9X      HAL2     0.900000E-01   1.00800           0
      5959 MEMB     45       POPC     H9Y      HAL2     0.900000E-01   1.00800           0
      5960 MEMB     45       POPC     C310     CTL2    -0.180000       12.0110           0
      5961 MEMB     45       POPC     H10X     HAL2     0.900000E-01   1.00800           0
      5962 MEMB     45       POPC     H10Y     HAL2     0.900000E-01   1.00800           0
      5963 MEMB     45       POPC     C311     CTL2    -0.180000       12.0110           0
      5964 MEMB     45       POPC     H11X     HAL2     0.900000E-01   1.00800           0
      5965 MEMB     45       POPC     H11Y     HAL2     0.900000E-01   1.00800           0
      5966 MEMB     45       POPC     C312     CTL2    -0.180000       12.0110           0
      5967 MEMB     45       POPC     H12X     HAL2     0.900000E-01   1.00800           0
      5968 MEMB     45       POPC     H12Y     HAL2     0.900000E-01   1.00800           0
      5969 MEMB     45       POPC     C313     CTL2    -0.180000       12.0110           0
      5970 MEMB     45       POPC     H13X     HAL2     0.900000E-01   1.00800           0
      5971 MEMB     45       POPC     H13Y     HAL2     0.900000E-01   1.00800           0
      5972 MEMB     45       POPC     C314     CTL2    -0.180000       12.0110           0
      5973 MEMB     45       POPC     H14X     HAL2     0.900000E-01   1.00800           0
      5974 MEMB     45       POPC     H14Y     HAL2     0.900000E-01   1.00800           0
      5975 MEMB     45       POPC     C315     CTL2    -0.180000       12.0110           0
      5976 MEMB     45       POPC     H15X     HAL2     0.900000E-01   1.00800           0
      5977 MEMB     45       POPC     H15Y     HAL2     0.900000E-01   1.00800           0
      5978 MEMB     45       POPC     C316     CTL3    -0.270000       12.0110           0
      5979 MEMB     45       POPC     H16X     HAL3     0.900000E-01   1.00800           0
      5980 MEMB     45       POPC     H16Y     HAL3     0.900000E-01   1.00800           0
      5981 MEMB     45       POPC     H16Z     HAL3     0.900000E-01   1.00800           0
      5982 MEMB     46       POPC     N        NTL     -0.600000       14.0070           0
      5983 MEMB     46       POPC     C12      CTL2    -0.100000       12.0110           0
      5984 MEMB     46       POPC     H12A     HL       0.250000       1.00800           0
      5985 MEMB     46       POPC     H12B     HL       0.250000       1.00800           0
      5986 MEMB     46       POPC     C13      CTL5    -0.350000       12.0110           0
      5987 MEMB     46       POPC     H13A     HL       0.250000       1.00800           0
      5988 MEMB     46       POPC     H13B     HL       0.250000       1.00800           0
      5989 MEMB     46       POPC     H13C     HL       0.250000       1.00800           0
      5990 MEMB     46       POPC     C14      CTL5    -0.350000       12.0110           0
      5991 MEMB     46       POPC     H14A     HL       0.250000       1.00800           0
      5992 MEMB     46       POPC     H14B     HL       0.250000       1.00800           0
      5993 MEMB     46       POPC     H14C     HL       0.250000       1.00800           0
      5994 MEMB     46       POPC     C15      CTL5    -0.350000       12.0110           0
      5995 MEMB     46       POPC     H15A     HL       0.250000       1.00800           0
      5996 MEMB     46       POPC     H15B     HL       0.250000       1.00800           0
      5997 MEMB     46       POPC     H15C     HL       0.250000       1.00800           0
      5998 MEMB     46       POPC     C11      CTL2    -0.800000E-01   12.0110           0
      5999 MEMB     46       POPC     H11A     HAL2     0.900000E-01   1.00800           0
      6000 MEMB     46       POPC     H11B     HAL2     0.900000E-01   1.00800           0
      6001 MEMB     46       POPC     P        PL        1.50000       30.9740           0
      6002 MEMB     46       POPC     O13      O2L     -0.780000       15.9994           0
      6003 MEMB     46       POPC     O14      O2L     -0.780000       15.9994           0
      6004 MEMB     46       POPC     O12      OSLP    -0.570000       15.9994           0
      6005 MEMB     46       POPC     O11      OSLP    -0.570000       15.9994           0
      6006 MEMB     46       POPC     C1       CTL2    -0.800000E-01   12.0110           0
      6007 MEMB     46       POPC     HA       HAL2     0.900000E-01   1.00800           0
      6008 MEMB     46       POPC     HB       HAL2     0.900000E-01   1.00800           0
      6009 MEMB     46       POPC     C2       CTL1     0.170000       12.0110           0
      6010 MEMB     46       POPC     HS       HAL1     0.900000E-01   1.00800           0
      6011 MEMB     46       POPC     O21      OSL     -0.490000       15.9994           0
      6012 MEMB     46       POPC     C21      CL       0.900000       12.0110           0
      6013 MEMB     46       POPC     O22      OBL     -0.630000       15.9994           0
      6014 MEMB     46       POPC     C22      CTL2    -0.220000       12.0110           0
      6015 MEMB     46       POPC     H2R      HAL2     0.900000E-01   1.00800           0
      6016 MEMB     46       POPC     H2S      HAL2     0.900000E-01   1.00800           0
      6017 MEMB     46       POPC     C3       CTL2     0.800000E-01   12.0110           0
      6018 MEMB     46       POPC     HX       HAL2     0.900000E-01   1.00800           0
      6019 MEMB     46       POPC     HY       HAL2     0.900000E-01   1.00800           0
      6020 MEMB     46       POPC     O31      OSL     -0.490000       15.9994           0
      6021 MEMB     46       POPC     C31      CL       0.900000       12.0110           0
      6022 MEMB     46       POPC     O32      OBL     -0.630000       15.9994           0
      6023 MEMB     46       POPC     C32      CTL2    -0.220000       12.0110           0
      6024 MEMB     46       POPC     H2X      HAL2     0.900000E-01   1.00800           0
      6025 MEMB     46       POPC     H2Y      HAL2     0.900000E-01   1.00800           0
      6026 MEMB     46       POPC     C23      CTL2    -0.180000       12.0110           0
      6027 MEMB     46       POPC     H3R      HAL2     0.900000E-01   1.00800           0
      6028 MEMB     46       POPC     H3S      HAL2     0.900000E-01   1.00800           0
      6029 MEMB     46       POPC     C24      CTL2    -0.180000       12.0110           0
      6030 MEMB     46       POPC     H4R      HAL2     0.900000E-01   1.00800           0
      6031 MEMB     46       POPC     H4S      HAL2     0.900000E-01   1.00800           0
      6032 MEMB     46       POPC     C25      CTL2    -0.180000       12.0110           0
      6033 MEMB     46       POPC     H5R      HAL2     0.900000E-01   1.00800           0
      6034 MEMB     46       POPC     H5S      HAL2     0.900000E-01   1.00800           0
      6035 MEMB     46       POPC     C26      CTL2    -0.180000       12.0110           0
      6036 MEMB     46       POPC     H6R      HAL2     0.900000E-01   1.00800           0
      6037 MEMB     46       POPC     H6S      HAL2     0.900000E-01   1.00800           0
      6038 MEMB     46       POPC     C27      CTL2    -0.180000       12.0110           0
      6039 MEMB     46       POPC     H7R      HAL2     0.900000E-01   1.00800           0
      6040 MEMB     46       POPC     H7S      HAL2     0.900000E-01   1.00800           0
      6041 MEMB     46       POPC     C28      CTL2    -0.180000       12.0110           0
      6042 MEMB     46       POPC     H8R      HAL2     0.900000E-01   1.00800           0
      6043 MEMB     46       POPC     H8S      HAL2     0.900000E-01   1.00800           0
      6044 MEMB     46       POPC     C29      CEL1    -0.150000       12.0110           0
      6045 MEMB     46       POPC     H91      HEL1     0.150000       1.00800           0
      6046 MEMB     46       POPC     C210     CEL1    -0.150000       12.0110           0
      6047 MEMB     46       POPC     H101     HEL1     0.150000       1.00800           0
      6048 MEMB     46       POPC     C211     CTL2    -0.180000       12.0110           0
      6049 MEMB     46       POPC     H11R     HAL2     0.900000E-01   1.00800           0
      6050 MEMB     46       POPC     H11S     HAL2     0.900000E-01   1.00800           0
      6051 MEMB     46       POPC     C212     CTL2    -0.180000       12.0110           0
      6052 MEMB     46       POPC     H12R     HAL2     0.900000E-01   1.00800           0
      6053 MEMB     46       POPC     H12S     HAL2     0.900000E-01   1.00800           0
      6054 MEMB     46       POPC     C213     CTL2    -0.180000       12.0110           0
      6055 MEMB     46       POPC     H13R     HAL2     0.900000E-01   1.00800           0
      6056 MEMB     46       POPC     H13S     HAL2     0.900000E-01   1.00800           0
      6057 MEMB     46       POPC     C214     CTL2    -0.180000       12.0110           0
      6058 MEMB     46       POPC     H14R     HAL2     0.900000E-01   1.00800           0
      6059 MEMB     46       POPC     H14S     HAL2     0.900000E-01   1.00800           0
      6060 MEMB     46       POPC     C215     CTL2    -0.180000       12.0110           0
      6061 MEMB     46       POPC     H15R     HAL2     0.900000E-01   1.00800           0
      6062 MEMB     46       POPC     H15S     HAL2     0.900000E-01   1.00800           0
      6063 MEMB     46       POPC     C216     CTL2    -0.180000       12.0110           0
      6064 MEMB     46       POPC     H16R     HAL2     0.900000E-01   1.00800           0
      6065 MEMB     46       POPC     H16S     HAL2     0.900000E-01   1.00800           0
      6066 MEMB     46       POPC     C217     CTL2    -0.180000       12.0110           0
      6067 MEMB     46       POPC     H17R     HAL2     0.900000E-01   1.00800           0
      6068 MEMB     46       POPC     H17S     HAL2     0.900000E-01   1.00800           0
      6069 MEMB     46       POPC     C218     CTL3    -0.270000       12.0110           0
      6070 MEMB     46       POPC     H18R     HAL3     0.900000E-01   1.00800           0
      6071 MEMB     46       POPC     H18S     HAL3     0.900000E-01   1.00800           0
      6072 MEMB     46       POPC     H18T     HAL3     0.900000E-01   1.00800           0
      6073 MEMB     46       POPC     C33      CTL2    -0.180000       12.0110           0
      6074 MEMB     46       POPC     H3X      HAL2     0.900000E-01   1.00800           0
      6075 MEMB     46       POPC     H3Y      HAL2     0.900000E-01   1.00800           0
      6076 MEMB     46       POPC     C34      CTL2    -0.180000       12.0110           0
      6077 MEMB     46       POPC     H4X      HAL2     0.900000E-01   1.00800           0
      6078 MEMB     46       POPC     H4Y      HAL2     0.900000E-01   1.00800           0
      6079 MEMB     46       POPC     C35      CTL2    -0.180000       12.0110           0
      6080 MEMB     46       POPC     H5X      HAL2     0.900000E-01   1.00800           0
      6081 MEMB     46       POPC     H5Y      HAL2     0.900000E-01   1.00800           0
      6082 MEMB     46       POPC     C36      CTL2    -0.180000       12.0110           0
      6083 MEMB     46       POPC     H6X      HAL2     0.900000E-01   1.00800           0
      6084 MEMB     46       POPC     H6Y      HAL2     0.900000E-01   1.00800           0
      6085 MEMB     46       POPC     C37      CTL2    -0.180000       12.0110           0
      6086 MEMB     46       POPC     H7X      HAL2     0.900000E-01   1.00800           0
      6087 MEMB     46       POPC     H7Y      HAL2     0.900000E-01   1.00800           0
      6088 MEMB     46       POPC     C38      CTL2    -0.180000       12.0110           0
      6089 MEMB     46       POPC     H8X      HAL2     0.900000E-01   1.00800           0
      6090 MEMB     46       POPC     H8Y      HAL2     0.900000E-01   1.00800           0
      6091 MEMB     46       POPC     C39      CTL2    -0.180000       12.0110           0
      6092 MEMB     46       POPC     H9X      HAL2     0.900000E-01   1.00800           0
      6093 MEMB     46       POPC     H9Y      HAL2     0.900000E-01   1.00800           0
      6094 MEMB     46       POPC     C310     CTL2    -0.180000       12.0110           0
      6095 MEMB     46       POPC     H10X     HAL2     0.900000E-01   1.00800           0
      6096 MEMB     46       POPC     H10Y     HAL2     0.900000E-01   1.00800           0
      6097 MEMB     46       POPC     C311     CTL2    -0.180000       12.0110           0
      6098 MEMB     46       POPC     H11X     HAL2     0.900000E-01   1.00800           0
      6099 MEMB     46       POPC     H11Y     HAL2     0.900000E-01   1.00800           0
      6100 MEMB     46       POPC     C312     CTL2    -0.180000       12.0110           0
      6101 MEMB     46       POPC     H12X     HAL2     0.900000E-01   1.00800           0
      6102 MEMB     46       POPC     H12Y     HAL2     0.900000E-01   1.00800           0
      6103 MEMB     46       POPC     C313     CTL2    -0.180000       12.0110           0
      6104 MEMB     46       POPC     H13X     HAL2     0.900000E-01   1.00800           0
      6105 MEMB     46       POPC     H13Y     HAL2     0.900000E-01   1.00800           0
      6106 MEMB     46       POPC     C314     CTL2    -0.180000       12.0110           0
      6107 MEMB     46       POPC     H14X     HAL2     0.900000E-01   1.00800           0
      6108 MEMB     46       POPC     H14Y     HAL2     0.900000E-01   1.00800           0
      6109 MEMB     46       POPC     C315     CTL2    -0.180000       12.0110           0
      6110 MEMB     46       POPC     H15X     HAL2     0.900000E-01   1.00800           0
      6111 MEMB     46       POPC     H15Y     HAL2     0.900000E-01   1.00800           0
      6112 MEMB     46       POPC     C316     CTL3    -0.270000       12.0110           0
      6113 MEMB     46       POPC     H16X     HAL3     0.900000E-01   1.00800           0
      6114 MEMB     46       POPC     H16Y     HAL3     0.900000E-01   1.00800           0
      6115 MEMB     46       POPC     H16Z     HAL3     0.900000E-01   1.00800           0
      6116 MEMB     47       POPC     N        NTL     -0.600000       14.0070           0
      6117 MEMB     47       POPC     C12      CTL2    -0.100000       12.0110           0
      6118 MEMB     47       POPC     H12A     HL       0.250000       1.00800           0
      6119 MEMB     47       POPC     H12B     HL       0.250000       1.00800           0
      6120 MEMB     47       POPC     C13      CTL5    -0.350000       12.0110           0
      6121 MEMB     47       POPC     H13A     HL       0.250000       1.00800           0
      6122 MEMB     47       POPC     H13B     HL       0.250000       1.00800           0
      6123 MEMB     47       POPC     H13C     HL       0.250000       1.00800           0
      6124 MEMB     47       POPC     C14      CTL5    -0.350000       12.0110           0
      6125 MEMB     47       POPC     H14A     HL       0.250000       1.00800           0
      6126 MEMB     47       POPC     H14B     HL       0.250000       1.00800           0
      6127 MEMB     47       POPC     H14C     HL       0.250000       1.00800           0
      6128 MEMB     47       POPC     C15      CTL5    -0.350000       12.0110           0
      6129 MEMB     47       POPC     H15A     HL       0.250000       1.00800           0
      6130 MEMB     47       POPC     H15B     HL       0.250000       1.00800           0
      6131 MEMB     47       POPC     H15C     HL       0.250000       1.00800           0
      6132 MEMB     47       POPC     C11      CTL2    -0.800000E-01   12.0110           0
      6133 MEMB     47       POPC     H11A     HAL2     0.900000E-01   1.00800           0
      6134 MEMB     47       POPC     H11B     HAL2     0.900000E-01   1.00800           0
      6135 MEMB     47       POPC     P        PL        1.50000       30.9740           0
      6136 MEMB     47       POPC     O13      O2L     -0.780000       15.9994           0
      6137 MEMB     47       POPC     O14      O2L     -0.780000       15.9994           0
      6138 MEMB     47       POPC     O12      OSLP    -0.570000       15.9994           0
      6139 MEMB     47       POPC     O11      OSLP    -0.570000       15.9994           0
      6140 MEMB     47       POPC     C1       CTL2    -0.800000E-01   12.0110           0
      6141 MEMB     47       POPC     HA       HAL2     0.900000E-01   1.00800           0
      6142 MEMB     47       POPC     HB       HAL2     0.900000E-01   1.00800           0
      6143 MEMB     47       POPC     C2       CTL1     0.170000       12.0110           0
      6144 MEMB     47       POPC     HS       HAL1     0.900000E-01   1.00800           0
      6145 MEMB     47       POPC     O21      OSL     -0.490000       15.9994           0
      6146 MEMB     47       POPC     C21      CL       0.900000       12.0110           0
      6147 MEMB     47       POPC     O22      OBL     -0.630000       15.9994           0
      6148 MEMB     47       POPC     C22      CTL2    -0.220000       12.0110           0
      6149 MEMB     47       POPC     H2R      HAL2     0.900000E-01   1.00800           0
      6150 MEMB     47       POPC     H2S      HAL2     0.900000E-01   1.00800           0
      6151 MEMB     47       POPC     C3       CTL2     0.800000E-01   12.0110           0
      6152 MEMB     47       POPC     HX       HAL2     0.900000E-01   1.00800           0
      6153 MEMB     47       POPC     HY       HAL2     0.900000E-01   1.00800           0
      6154 MEMB     47       POPC     O31      OSL     -0.490000       15.9994           0
      6155 MEMB     47       POPC     C31      CL       0.900000       12.0110           0
      6156 MEMB     47       POPC     O32      OBL     -0.630000       15.9994           0
      6157 MEMB     47       POPC     C32      CTL2    -0.220000       12.0110           0
      6158 MEMB     47       POPC     H2X      HAL2     0.900000E-01   1.00800           0
      6159 MEMB     47       POPC     H2Y      HAL2     0.900000E-01   1.00800           0
      6160 MEMB     47       POPC     C23      CTL2    -0.180000       12.0110           0
      6161 MEMB     47       POPC     H3R      HAL2     0.900000E-01   1.00800           0
      6162 MEMB     47       POPC     H3S      HAL2     0.900000E-01   1.00800           0
      6163 MEMB     47       POPC     C24      CTL2    -0.180000       12.0110           0
      6164 MEMB     47       POPC     H4R      HAL2     0.900000E-01   1.00800           0
      6165 MEMB     47       POPC     H4S      HAL2     0.900000E-01   1.00800           0
      6166 MEMB     47       POPC     C25      CTL2    -0.180000       12.0110           0
      6167 MEMB     47       POPC     H5R      HAL2     0.900000E-01   1.00800           0
      6168 MEMB     47       POPC     H5S      HAL2     0.900000E-01   1.00800           0
      6169 MEMB     47       POPC     C26      CTL2    -0.180000       12.0110           0
      6170 MEMB     47       POPC     H6R      HAL2     0.900000E-01   1.00800           0
      6171 MEMB     47       POPC     H6S      HAL2     0.900000E-01   1.00800           0
      6172 MEMB     47       POPC     C27      CTL2    -0.180000       12.0110           0
      6173 MEMB     47       POPC     H7R      HAL2     0.900000E-01   1.00800           0
      6174 MEMB     47       POPC     H7S      HAL2     0.900000E-01   1.00800           0
      6175 MEMB     47       POPC     C28      CTL2    -0.180000       12.0110           0
      6176 MEMB     47       POPC     H8R      HAL2     0.900000E-01   1.00800           0
      6177 MEMB     47       POPC     H8S      HAL2     0.900000E-01   1.00800           0
      6178 MEMB     47       POPC     C29      CEL1    -0.150000       12.0110           0
      6179 MEMB     47       POPC     H91      HEL1     0.150000       1.00800           0
      6180 MEMB     47       POPC     C210     CEL1    -0.150000       12.0110           0
      6181 MEMB     47       POPC     H101     HEL1     0.150000       1.00800           0
      6182 MEMB     47       POPC     C211     CTL2    -0.180000       12.0110           0
      6183 MEMB     47       POPC     H11R     HAL2     0.900000E-01   1.00800           0
      6184 MEMB     47       POPC     H11S     HAL2     0.900000E-01   1.00800           0
      6185 MEMB     47       POPC     C212     CTL2    -0.180000       12.0110           0
      6186 MEMB     47       POPC     H12R     HAL2     0.900000E-01   1.00800           0
      6187 MEMB     47       POPC     H12S     HAL2     0.900000E-01   1.00800           0
      6188 MEMB     47       POPC     C213     CTL2    -0.180000       12.0110           0
      6189 MEMB     47       POPC     H13R     HAL2     0.900000E-01   1.00800           0
      6190 MEMB     47       POPC     H13S     HAL2     0.900000E-01   1.00800           0
      6191 MEMB     47       POPC     C214     CTL2    -0.180000       12.0110           0
      6192 MEMB     47       POPC     H14R     HAL2     0.900000E-01   1.00800           0
      6193 MEMB     47       POPC     H14S     HAL2     0.900000E-01   1.00800           0
      6194 MEMB     47       POPC     C215     CTL2    -0.180000       12.0110           0
      6195 MEMB     47       POPC     H15R     HAL2     0.900000E-01   1.00800           0
      6196 MEMB     47       POPC     H15S     HAL2     0.900000E-01   1.00800           0
      6197 MEMB     47       POPC     C216     CTL2    -0.180000       12.0110           0
      6198 MEMB     47       POPC     H16R     HAL2     0.900000E-01   1.00800           0
      6199 MEMB     47       POPC     H16S     HAL2     0.900000E-01   1.00800           0
      6200 MEMB     47       POPC     C217     CTL2    -0.180000       12.0110           0
      6201 MEMB     47       POPC     H17R     HAL2     0.900000E-01   1.00800           0
      6202 MEMB     47       POPC     H17S     HAL2     0.900000E-01   1.00800           0
      6203 MEMB     47       POPC     C218     CTL3    -0.270000       12.0110           0
      6204 MEMB     47       POPC     H18R     HAL3     0.900000E-01   1.00800           0
      6205 MEMB     47       POPC     H18S     HAL3     0.900000E-01   1.00800           0
      6206 MEMB     47       POPC     H18T     HAL3     0.900000E-01   1.00800           0
      6207 MEMB     47       POPC     C33      CTL2    -0.180000       12.0110           0
      6208 MEMB     47       POPC     H3X      HAL2     0.900000E-01   1.00800           0
      6209 MEMB     47       POPC     H3Y      HAL2     0.900000E-01   1.00800           0
      6210 MEMB     47       POPC     C34      CTL2    -0.180000       12.0110           0
      6211 MEMB     47       POPC     H4X      HAL2     0.900000E-01   1.00800           0
      6212 MEMB     47       POPC     H4Y      HAL2     0.900000E-01   1.00800           0
      6213 MEMB     47       POPC     C35      CTL2    -0.180000       12.0110           0
      6214 MEMB     47       POPC     H5X      HAL2     0.900000E-01   1.00800           0
      6215 MEMB     47       POPC     H5Y      HAL2     0.900000E-01   1.00800           0
      6216 MEMB     47       POPC     C36      CTL2    -0.180000       12.0110           0
      6217 MEMB     47       POPC     H6X      HAL2     0.900000E-01   1.00800           0
      6218 MEMB     47       POPC     H6Y      HAL2     0.900000E-01   1.00800           0
      6219 MEMB     47       POPC     C37      CTL2    -0.180000       12.0110           0
      6220 MEMB     47       POPC     H7X      HAL2     0.900000E-01   1.00800           0
      6221 MEMB     47       POPC     H7Y      HAL2     0.900000E-01   1.00800           0
      6222 MEMB     47       POPC     C38      CTL2    -0.180000       12.0110           0
      6223 MEMB     47       POPC     H8X      HAL2     0.900000E-01   1.00800           0
      6224 MEMB     47       POPC     H8Y      HAL2     0.900000E-01   1.00800           0
      6225 MEMB     47       POPC     C39      CTL2    -0.180000       12.0110           0
      6226 MEMB     47       POPC     H9X      HAL2     0.900000E-01   1.00800           0
      6227 MEMB     47       POPC     H9Y      HAL2     0.900000E-01   1.00800           0
      6228 MEMB     47       POPC     C310     CTL2    -0.180000       12.0110           0
      6229 MEMB     47       POPC     H10X     HAL2     0.900000E-01   1.00800           0
      6230 MEMB     47       POPC     H10Y     HAL2     0.900000E-01   1.00800           0
      6231 MEMB     47       POPC     C311     CTL2    -0.180000       12.0110           0
      6232 MEMB     47       POPC     H11X     HAL2     0.900000E-01   1.00800           0
      6233 MEMB     47       POPC     H11Y     HAL2     0.900000E-01   1.00800           0
      6234 MEMB     47       POPC     C312     CTL2    -0.180000       12.0110           0
      6235 MEMB     47       POPC     H12X     HAL2     0.900000E-01   1.00800           0
      6236 MEMB     47       POPC     H12Y     HAL2     0.900000E-01   1.00800           0
      6237 MEMB     47       POPC     C313     CTL2    -0.180000       12.0110           0
      6238 MEMB     47       POPC     H13X     HAL2     0.900000E-01   1.00800           0
      6239 MEMB     47       POPC     H13Y     HAL2     0.900000E-01   1.00800           0
      6240 MEMB     47       POPC     C314     CTL2    -0.180000       12.0110           0
      6241 MEMB     47       POPC     H14X     HAL2     0.900000E-01   1.00800           0
      6242 MEMB     47       POPC     H14Y     HAL2     0.900000E-01   1.00800           0
      6243 MEMB     47       POPC     C315     CTL2    -0.180000       12.0110           0
      6244 MEMB     47       POPC     H15X     HAL2     0.900000E-01   1.00800           0
      6245 MEMB     47       POPC     H15Y     HAL2     0.900000E-01   1.00800           0
      6246 MEMB     47       POPC     C316     CTL3    -0.270000       12.0110           0
      6247 MEMB     47       POPC     H16X     HAL3     0.900000E-01   1.00800           0
      6248 MEMB     47       POPC     H16Y     HAL3     0.900000E-01   1.00800           0
      6249 MEMB     47       POPC     H16Z     HAL3     0.900000E-01   1.00800           0
      6250 MEMB     48       POPC     N        NTL     -0.600000       14.0070           0
      6251 MEMB     48       POPC     C12      CTL2    -0.100000       12.0110           0
      6252 MEMB     48       POPC     H12A     HL       0.250000       1.00800           0
      6253 MEMB     48       POPC     H12B     HL       0.250000       1.00800           0
      6254 MEMB     48       POPC     C13      CTL5    -0.350000       12.0110           0
      6255 MEMB     48       POPC     H13A     HL       0.250000       1.00800           0
      6256 MEMB     48       POPC     H13B     HL       0.250000       1.00800           0
      6257 MEMB     48       POPC     H13C     HL       0.250000       1.00800           0
      6258 MEMB     48       POPC     C14      CTL5    -0.350000       12.0110           0
      6259 MEMB     48       POPC     H14A     HL       0.250000       1.00800           0
      6260 MEMB     48       POPC     H14B     HL       0.250000       1.00800           0
      6261 MEMB     48       POPC     H14C     HL       0.250000       1.00800           0
      6262 MEMB     48       POPC     C15      CTL5    -0.350000       12.0110           0
      6263 MEMB     48       POPC     H15A     HL       0.250000       1.00800           0
      6264 MEMB     48       POPC     H15B     HL       0.250000       1.00800           0
      6265 MEMB     48       POPC     H15C     HL       0.250000       1.00800           0
      6266 MEMB     48       POPC     C11      CTL2    -0.800000E-01   12.0110           0
      6267 MEMB     48       POPC     H11A     HAL2     0.900000E-01   1.00800           0
      6268 MEMB     48       POPC     H11B     HAL2     0.900000E-01   1.00800           0
      6269 MEMB     48       POPC     P        PL        1.50000       30.9740           0
      6270 MEMB     48       POPC     O13      O2L     -0.780000       15.9994           0
      6271 MEMB     48       POPC     O14      O2L     -0.780000       15.9994           0
      6272 MEMB     48       POPC     O12      OSLP    -0.570000       15.9994           0
      6273 MEMB     48       POPC     O11      OSLP    -0.570000       15.9994           0
      6274 MEMB     48       POPC     C1       CTL2    -0.800000E-01   12.0110           0
      6275 MEMB     48       POPC     HA       HAL2     0.900000E-01   1.00800           0
      6276 MEMB     48       POPC     HB       HAL2     0.900000E-01   1.00800           0
      6277 MEMB     48       POPC     C2       CTL1     0.170000       12.0110           0
      6278 MEMB     48       POPC     HS       HAL1     0.900000E-01   1.00800           0
      6279 MEMB     48       POPC     O21      OSL     -0.490000       15.9994           0
      6280 MEMB     48       POPC     C21      CL       0.900000       12.0110           0
      6281 MEMB     48       POPC     O22      OBL     -0.630000       15.9994           0
      6282 MEMB     48       POPC     C22      CTL2    -0.220000       12.0110           0
      6283 MEMB     48       POPC     H2R      HAL2     0.900000E-01   1.00800           0
      6284 MEMB     48       POPC     H2S      HAL2     0.900000E-01   1.00800           0
      6285 MEMB     48       POPC     C3       CTL2     0.800000E-01   12.0110           0
      6286 MEMB     48       POPC     HX       HAL2     0.900000E-01   1.00800           0
      6287 MEMB     48       POPC     HY       HAL2     0.900000E-01   1.00800           0
      6288 MEMB     48       POPC     O31      OSL     -0.490000       15.9994           0
      6289 MEMB     48       POPC     C31      CL       0.900000       12.0110           0
      6290 MEMB     48       POPC     O32      OBL     -0.630000       15.9994           0
      6291 MEMB     48       POPC     C32      CTL2    -0.220000       12.0110           0
      6292 MEMB     48       POPC     H2X      HAL2     0.900000E-01   1.00800           0
      6293 MEMB     48       POPC     H2Y      HAL2     0.900000E-01   1.00800           0
      6294 MEMB     48       POPC     C23      CTL2    -0.180000       12.0110           0
      6295 MEMB     48       POPC     H3R      HAL2     0.900000E-01   1.00800           0
      6296 MEMB     48       POPC     H3S      HAL2     0.900000E-01   1.00800           0
      6297 MEMB     48       POPC     C24      CTL2    -0.180000       12.0110           0
      6298 MEMB     48       POPC     H4R      HAL2     0.900000E-01   1.00800           0
      6299 MEMB     48       POPC     H4S      HAL2     0.900000E-01   1.00800           0
      6300 MEMB     48       POPC     C25      CTL2    -0.180000       12.0110           0
      6301 MEMB     48       POPC     H5R      HAL2     0.900000E-01   1.00800           0
      6302 MEMB     48       POPC     H5S      HAL2     0.900000E-01   1.00800           0
      6303 MEMB     48       POPC     C26      CTL2    -0.180000       12.0110           0
      6304 MEMB     48       POPC     H6R      HAL2     0.900000E-01   1.00800           0
      6305 MEMB     48       POPC     H6S      HAL2     0.900000E-01   1.00800           0
      6306 MEMB     48       POPC     C27      CTL2    -0.180000       12.0110           0
      6307 MEMB     48       POPC     H7R      HAL2     0.900000E-01   1.00800           0
      6308 MEMB     48       POPC     H7S      HAL2     0.900000E-01   1.00800           0
      6309 MEMB     48       POPC     C28      CTL2    -0.180000       12.0110           0
      6310 MEMB     48       POPC     H8R      HAL2     0.900000E-01   1.00800           0
      6311 MEMB     48       POPC     H8S      HAL2     0.900000E-01   1.00800           0
      6312 MEMB     48       POPC     C29      CEL1    -0.150000       12.0110           0
      6313 MEMB     48       POPC     H91      HEL1     0.150000       1.00800           0
      6314 MEMB     48       POPC     C210     CEL1    -0.150000       12.0110           0
      6315 MEMB     48       POPC     H101     HEL1     0.150000       1.00800           0
      6316 MEMB     48       POPC     C211     CTL2    -0.180000       12.0110           0
      6317 MEMB     48       POPC     H11R     HAL2     0.900000E-01   1.00800           0
      6318 MEMB     48       POPC     H11S     HAL2     0.900000E-01   1.00800           0
      6319 MEMB     48       POPC     C212     CTL2    -0.180000       12.0110           0
      6320 MEMB     48       POPC     H12R     HAL2     0.900000E-01   1.00800           0
      6321 MEMB     48       POPC     H12S     HAL2     0.900000E-01   1.00800           0
      6322 MEMB     48       POPC     C213     CTL2    -0.180000       12.0110           0
      6323 MEMB     48       POPC     H13R     HAL2     0.900000E-01   1.00800           0
      6324 MEMB     48       POPC     H13S     HAL2     0.900000E-01   1.00800           0
      6325 MEMB     48       POPC     C214     CTL2    -0.180000       12.0110           0
      6326 MEMB     48       POPC     H14R     HAL2     0.900000E-01   1.00800           0
      6327 MEMB     48       POPC     H14S     HAL2     0.900000E-01   1.00800           0
      6328 MEMB     48       POPC     C215     CTL2    -0.180000       12.0110           0
      6329 MEMB     48       POPC     H15R     HAL2     0.900000E-01   1.00800           0
      6330 MEMB     48       POPC     H15S     HAL2     0.900000E-01   1.00800           0
      6331 MEMB     48       POPC     C216     CTL2    -0.180000       12.0110           0
      6332 MEMB     48       POPC     H16R     HAL2     0.900000E-01   1.00800           0
      6333 MEMB     48       POPC     H16S     HAL2     0.900000E-01   1.00800           0
      6334 MEMB     48       POPC     C217     CTL2    -0.180000       12.0110           0
      6335 MEMB     48       POPC     H17R     HAL2     0.900000E-01   1.00800           0
      6336 MEMB     48       POPC     H17S     HAL2     0.900000E-01   1.00800           0
      6337 MEMB     48       POPC     C218     CTL3    -0.270000       12.0110           0
      6338 MEMB     48       POPC     H18R     HAL3     0.900000E-01   1.00800           0
      6339 MEMB     48       POPC     H18S     HAL3     0.900000E-01   1.00800           0
      6340 MEMB     48       POPC     H18T     HAL3     0.900000E-01   1.00800           0
      6341 MEMB     48       POPC     C33      CTL2    -0.180000       12.0110           0
      6342 MEMB     48       POPC     H3X      HAL2     0.900000E-01   1.00800           0
      6343 MEMB     48       POPC     H3Y      HAL2     0.900000E-01   1.00800           0
      6344 MEMB     48       POPC     C34      CTL2    -0.180000       12.0110           0
      6345 MEMB     48       POPC     H4X      HAL2     0.900000E-01   1.00800           0
      6346 MEMB     48       POPC     H4Y      HAL2     0.900000E-01   1.00800           0
      6347 MEMB     48       POPC     C35      CTL2    -0.180000       12.0110           0
      6348 MEMB     48       POPC     H5X      HAL2     0.900000E-01   1.00800           0
      6349 MEMB     48       POPC     H5Y      HAL2     0.900000E-01   1.00800           0
      6350 MEMB     48       POPC     C36      CTL2    -0.180000       12.0110           0
      6351 MEMB     48       POPC     H6X      HAL2     0.900000E-01   1.00800           0
      6352 MEMB     48       POPC     H6Y      HAL2     0.900000E-01   1.00800           0
      6353 MEMB     48       POPC     C37      CTL2    -0.180000       12.0110           0
      6354 MEMB     48       POPC     H7X      HAL2     0.900000E-01   1.00800           0
      6355 MEMB     48       POPC     H7Y      HAL2     0.900000E-01   1.00800           0
      6356 MEMB     48       POPC     C38      CTL2    -0.180000       12.0110           0
      6357 MEMB     48       POPC     H8X      HAL2     0.900000E-01   1.00800           0
      6358 MEMB     48       POPC     H8Y      HAL2     0.900000E-01   1.00800           0
      6359 MEMB     48       POPC     C39      CTL2    -0.180000       12.0110           0
      6360 MEMB     48       POPC     H9X      HAL2     0.900000E-01   1.00800           0
      6361 MEMB     48       POPC     H9Y      HAL2     0.900000E-01   1.00800           0
      6362 MEMB     48       POPC     C310     CTL2    -0.180000       12.0110           0
      6363 MEMB     48       POPC     H10X     HAL2     0.900000E-01   1.00800           0
      6364 MEMB     48       POPC     H10Y     HAL2     0.900000E-01   1.00800           0
      6365 MEMB     48       POPC     C311     CTL2    -0.180000       12.0110           0
      6366 MEMB     48       POPC     H11X     HAL2     0.900000E-01   1.00800           0
      6367 MEMB     48       POPC     H11Y     HAL2     0.900000E-01   1.00800           0
      6368 MEMB     48       POPC     C312     CTL2    -0.180000       12.0110           0
      6369 MEMB     48       POPC     H12X     HAL2     0.900000E-01   1.00800           0
      6370 MEMB     48       POPC     H12Y     HAL2     0.900000E-01   1.00800           0
      6371 MEMB     48       POPC     C313     CTL2    -0.180000       12.0110           0
      6372 MEMB     48       POPC     H13X     HAL2     0.900000E-01   1.00800           0
      6373 MEMB     48       POPC     H13Y     HAL2     0.900000E-01   1.00800           0
      6374 MEMB     48       POPC     C314     CTL2    -0.180000       12.0110           0
      6375 MEMB     48       POPC     H14X     HAL2     0.900000E-01   1.00800           0
      6376 MEMB     48       POPC     H14Y     HAL2     0.900000E-01   1.00800           0
      6377 MEMB     48       POPC     C315     CTL2    -0.180000       12.0110           0
      6378 MEMB     48       POPC     H15X     HAL2     0.900000E-01   1.00800           0
      6379 MEMB     48       POPC     H15Y     HAL2     0.900000E-01   1.00800           0
      6380 MEMB     48       POPC     C316     CTL3    -0.270000       12.0110           0
      6381 MEMB     48       POPC     H16X     HAL3     0.900000E-01   1.00800           0
      6382 MEMB     48       POPC     H16Y     HAL3     0.900000E-01   1.00800           0
      6383 MEMB     48       POPC     H16Z     HAL3     0.900000E-01   1.00800           0
      6384 MEMB     49       POPS     N        NH3L    -0.300000       14.0070           0
      6385 MEMB     49       POPS     HN1      HCL      0.330000       1.00800           0
      6386 MEMB     49       POPS     HN2      HCL      0.330000       1.00800           0
      6387 MEMB     49       POPS     HN3      HCL      0.330000       1.00800           0
      6388 MEMB     49       POPS     C12      CTL1     0.210000       12.0110           0
      6389 MEMB     49       POPS     H12A     HBL      0.100000       1.00800           0
      6390 MEMB     49       POPS     C13      CCL      0.340000       12.0110           0
      6391 MEMB     49       POPS     O13A     OCL     -0.670000       15.9994           0
      6392 MEMB     49       POPS     O13B     OCL     -0.670000       15.9994           0
      6393 MEMB     49       POPS     C11      CTL2    -0.800000E-01   12.0110           0
      6394 MEMB     49       POPS     H11A     HAL2     0.900000E-01   1.00800           0
      6395 MEMB     49       POPS     H11B     HAL2     0.900000E-01   1.00800           0
      6396 MEMB     49       POPS     P        PL        1.50000       30.9740           0
      6397 MEMB     49       POPS     O13      O2L     -0.780000       15.9994           0
      6398 MEMB     49       POPS     O14      O2L     -0.780000       15.9994           0
      6399 MEMB     49       POPS     O12      OSLP    -0.570000       15.9994           0
      6400 MEMB     49       POPS     O11      OSLP    -0.570000       15.9994           0
      6401 MEMB     49       POPS     C1       CTL2    -0.800000E-01   12.0110           0
      6402 MEMB     49       POPS     HA       HAL2     0.900000E-01   1.00800           0
      6403 MEMB     49       POPS     HB       HAL2     0.900000E-01   1.00800           0
      6404 MEMB     49       POPS     C2       CTL1     0.170000       12.0110           0
      6405 MEMB     49       POPS     HS       HAL1     0.900000E-01   1.00800           0
      6406 MEMB     49       POPS     O21      OSL     -0.490000       15.9994           0
      6407 MEMB     49       POPS     C21      CL       0.900000       12.0110           0
      6408 MEMB     49       POPS     O22      OBL     -0.630000       15.9994           0
      6409 MEMB     49       POPS     C22      CTL2    -0.220000       12.0110           0
      6410 MEMB     49       POPS     H2R      HAL2     0.900000E-01   1.00800           0
      6411 MEMB     49       POPS     H2S      HAL2     0.900000E-01   1.00800           0
      6412 MEMB     49       POPS     C3       CTL2     0.800000E-01   12.0110           0
      6413 MEMB     49       POPS     HX       HAL2     0.900000E-01   1.00800           0
      6414 MEMB     49       POPS     HY       HAL2     0.900000E-01   1.00800           0
      6415 MEMB     49       POPS     O31      OSL     -0.490000       15.9994           0
      6416 MEMB     49       POPS     C31      CL       0.900000       12.0110           0
      6417 MEMB     49       POPS     O32      OBL     -0.630000       15.9994           0
      6418 MEMB     49       POPS     C32      CTL2    -0.220000       12.0110           0
      6419 MEMB     49       POPS     H2X      HAL2     0.900000E-01   1.00800           0
      6420 MEMB     49       POPS     H2Y      HAL2     0.900000E-01   1.00800           0
      6421 MEMB     49       POPS     C23      CTL2    -0.180000       12.0110           0
      6422 MEMB     49       POPS     H3R      HAL2     0.900000E-01   1.00800           0
      6423 MEMB     49       POPS     H3S      HAL2     0.900000E-01   1.00800           0
      6424 MEMB     49       POPS     C24      CTL2    -0.180000       12.0110           0
      6425 MEMB     49       POPS     H4R      HAL2     0.900000E-01   1.00800           0
      6426 MEMB     49       POPS     H4S      HAL2     0.900000E-01   1.00800           0
      6427 MEMB     49       POPS     C25      CTL2    -0.180000       12.0110           0
      6428 MEMB     49       POPS     H5R      HAL2     0.900000E-01   1.00800           0
      6429 MEMB     49       POPS     H5S      HAL2     0.900000E-01   1.00800           0
      6430 MEMB     49       POPS     C26      CTL2    -0.180000       12.0110           0
      6431 MEMB     49       POPS     H6R      HAL2     0.900000E-01   1.00800           0
      6432 MEMB     49       POPS     H6S      HAL2     0.900000E-01   1.00800           0
      6433 MEMB     49       POPS     C27      CTL2    -0.180000       12.0110           0
      6434 MEMB     49       POPS     H7R      HAL2     0.900000E-01   1.00800           0
      6435 MEMB     49       POPS     H7S      HAL2     0.900000E-01   1.00800           0
      6436 MEMB     49       POPS     C28      CTL2    -0.180000       12.0110           0
      6437 MEMB     49       POPS     H8R      HAL2     0.900000E-01   1.00800           0
      6438 MEMB     49       POPS     H8S      HAL2     0.900000E-01   1.00800           0
      6439 MEMB     49       POPS     C29      CEL1    -0.150000       12.0110           0
      6440 MEMB     49       POPS     H91      HEL1     0.150000       1.00800           0
      6441 MEMB     49       POPS     C210     CEL1    -0.150000       12.0110           0
      6442 MEMB     49       POPS     H101     HEL1     0.150000       1.00800           0
      6443 MEMB     49       POPS     C211     CTL2    -0.180000       12.0110           0
      6444 MEMB     49       POPS     H11R     HAL2     0.900000E-01   1.00800           0
      6445 MEMB     49       POPS     H11S     HAL2     0.900000E-01   1.00800           0
      6446 MEMB     49       POPS     C212     CTL2    -0.180000       12.0110           0
      6447 MEMB     49       POPS     H12R     HAL2     0.900000E-01   1.00800           0
      6448 MEMB     49       POPS     H12S     HAL2     0.900000E-01   1.00800           0
      6449 MEMB     49       POPS     C213     CTL2    -0.180000       12.0110           0
      6450 MEMB     49       POPS     H13R     HAL2     0.900000E-01   1.00800           0
      6451 MEMB     49       POPS     H13S     HAL2     0.900000E-01   1.00800           0
      6452 MEMB     49       POPS     C214     CTL2    -0.180000       12.0110           0
      6453 MEMB     49       POPS     H14R     HAL2     0.900000E-01   1.00800           0
      6454 MEMB     49       POPS     H14S     HAL2     0.900000E-01   1.00800           0
      6455 MEMB     49       POPS     C215     CTL2    -0.180000       12.0110           0
      6456 MEMB     49       POPS     H15R     HAL2     0.900000E-01   1.00800           0
      6457 MEMB     49       POPS     H15S     HAL2     0.900000E-01   1.00800           0
      6458 MEMB     49       POPS     C216     CTL2    -0.180000       12.0110           0
      6459 MEMB     49       POPS     H16R     HAL2     0.900000E-01   1.00800           0
      6460 MEMB     49       POPS     H16S     HAL2     0.900000E-01   1.00800           0
      6461 MEMB     49       POPS     C217     CTL2    -0.180000       12.0110           0
      6462 MEMB     49       POPS     H17R     HAL2     0.900000E-01   1.00800           0
      6463 MEMB     49       POPS     H17S     HAL2     0.900000E-01   1.00800           0
      6464 MEMB     49       POPS     C218     CTL3    -0.270000       12.0110           0
      6465 MEMB     49       POPS     H18R     HAL3     0.900000E-01   1.00800           0
      6466 MEMB     49       POPS     H18S     HAL3     0.900000E-01   1.00800           0
      6467 MEMB     49       POPS     H18T     HAL3     0.900000E-01   1.00800           0
      6468 MEMB     49       POPS     C33      CTL2    -0.180000       12.0110           0
      6469 MEMB     49       POPS     H3X      HAL2     0.900000E-01   1.00800           0
      6470 MEMB     49       POPS     H3Y      HAL2     0.900000E-01   1.00800           0
      6471 MEMB     49       POPS     C34      CTL2    -0.180000       12.0110           0
      6472 MEMB     49       POPS     H4X      HAL2     0.900000E-01   1.00800           0
      6473 MEMB     49       POPS     H4Y      HAL2     0.900000E-01   1.00800           0
      6474 MEMB     49       POPS     C35      CTL2    -0.180000       12.0110           0
      6475 MEMB     49       POPS     H5X      HAL2     0.900000E-01   1.00800           0
      6476 MEMB     49       POPS     H5Y      HAL2     0.900000E-01   1.00800           0
      6477 MEMB     49       POPS     C36      CTL2    -0.180000       12.0110           0
      6478 MEMB     49       POPS     H6X      HAL2     0.900000E-01   1.00800           0
      6479 MEMB     49       POPS     H6Y      HAL2     0.900000E-01   1.00800           0
      6480 MEMB     49       POPS     C37      CTL2    -0.180000       12.0110           0
      6481 MEMB     49       POPS     H7X      HAL2     0.900000E-01   1.00800           0
      6482 MEMB     49       POPS     H7Y      HAL2     0.900000E-01   1.00800           0
      6483 MEMB     49       POPS     C38      CTL2    -0.180000       12.0110           0
      6484 MEMB     49       POPS     H8X      HAL2     0.900000E-01   1.00800           0
      6485 MEMB     49       POPS     H8Y      HAL2     0.900000E-01   1.00800           0
      6486 MEMB     49       POPS     C39      CTL2    -0.180000       12.0110           0
      6487 MEMB     49       POPS     H9X      HAL2     0.900000E-01   1.00800           0
      6488 MEMB     49       POPS     H9Y      HAL2     0.900000E-01   1.00800           0
      6489 MEMB     49       POPS     C310     CTL2    -0.180000       12.0110           0
      6490 MEMB     49       POPS     H10X     HAL2     0.900000E-01   1.00800           0
      6491 MEMB     49       POPS     H10Y     HAL2     0.900000E-01   1.00800           0
      6492 MEMB     49       POPS     C311     CTL2    -0.180000       12.0110           0
      6493 MEMB     49       POPS     H11X     HAL2     0.900000E-01   1.00800           0
      6494 MEMB     49       POPS     H11Y     HAL2     0.900000E-01   1.00800           0
      6495 MEMB     49       POPS     C312     CTL2    -0.180000       12.0110           0
      6496 MEMB     49       POPS     H12X     HAL2     0.900000E-01   1.00800           0
      6497 MEMB     49       POPS     H12Y     HAL2     0.900000E-01   1.00800           0
      6498 MEMB     49       POPS     C313     CTL2    -0.180000       12.0110           0
      6499 MEMB     49       POPS     H13X     HAL2     0.900000E-01   1.00800           0
      6500 MEMB     49       POPS     H13Y     HAL2     0.900000E-01   1.00800           0
      6501 MEMB     49       POPS     C314     CTL2    -0.180000       12.0110           0
      6502 MEMB     49       POPS     H14X     HAL2     0.900000E-01   1.00800           0
      6503 MEMB     49       POPS     H14Y     HAL2     0.900000E-01   1.00800           0
      6504 MEMB     49       POPS     C315     CTL2    -0.180000       12.0110           0
      6505 MEMB     49       POPS     H15X     HAL2     0.900000E-01   1.00800           0
      6506 MEMB     49       POPS     H15Y     HAL2     0.900000E-01   1.00800           0
      6507 MEMB     49       POPS     C316     CTL3    -0.270000       12.0110           0
      6508 MEMB     49       POPS     H16X     HAL3     0.900000E-01   1.00800           0
      6509 MEMB     49       POPS     H16Y     HAL3     0.900000E-01   1.00800           0
      6510 MEMB     49       POPS     H16Z     HAL3     0.900000E-01   1.00800           0
      6511 MEMB     50       POPS     N        NH3L    -0.300000       14.0070           0
      6512 MEMB     50       POPS     HN1      HCL      0.330000       1.00800           0
      6513 MEMB     50       POPS     HN2      HCL      0.330000       1.00800           0
      6514 MEMB     50       POPS     HN3      HCL      0.330000       1.00800           0
      6515 MEMB     50       POPS     C12      CTL1     0.210000       12.0110           0
      6516 MEMB     50       POPS     H12A     HBL      0.100000       1.00800           0
      6517 MEMB     50       POPS     C13      CCL      0.340000       12.0110           0
      6518 MEMB     50       POPS     O13A     OCL     -0.670000       15.9994           0
      6519 MEMB     50       POPS     O13B     OCL     -0.670000       15.9994           0
      6520 MEMB     50       POPS     C11      CTL2    -0.800000E-01   12.0110           0
      6521 MEMB     50       POPS     H11A     HAL2     0.900000E-01   1.00800           0
      6522 MEMB     50       POPS     H11B     HAL2     0.900000E-01   1.00800           0
      6523 MEMB     50       POPS     P        PL        1.50000       30.9740           0
      6524 MEMB     50       POPS     O13      O2L     -0.780000       15.9994           0
      6525 MEMB     50       POPS     O14      O2L     -0.780000       15.9994           0
      6526 MEMB     50       POPS     O12      OSLP    -0.570000       15.9994           0
      6527 MEMB     50       POPS     O11      OSLP    -0.570000       15.9994           0
      6528 MEMB     50       POPS     C1       CTL2    -0.800000E-01   12.0110           0
      6529 MEMB     50       POPS     HA       HAL2     0.900000E-01   1.00800           0
      6530 MEMB     50       POPS     HB       HAL2     0.900000E-01   1.00800           0
      6531 MEMB     50       POPS     C2       CTL1     0.170000       12.0110           0
      6532 MEMB     50       POPS     HS       HAL1     0.900000E-01   1.00800           0
      6533 MEMB     50       POPS     O21      OSL     -0.490000       15.9994           0
      6534 MEMB     50       POPS     C21      CL       0.900000       12.0110           0
      6535 MEMB     50       POPS     O22      OBL     -0.630000       15.9994           0
      6536 MEMB     50       POPS     C22      CTL2    -0.220000       12.0110           0
      6537 MEMB     50       POPS     H2R      HAL2     0.900000E-01   1.00800           0
      6538 MEMB     50       POPS     H2S      HAL2     0.900000E-01   1.00800           0
      6539 MEMB     50       POPS     C3       CTL2     0.800000E-01   12.0110           0
      6540 MEMB     50       POPS     HX       HAL2     0.900000E-01   1.00800           0
      6541 MEMB     50       POPS     HY       HAL2     0.900000E-01   1.00800           0
      6542 MEMB     50       POPS     O31      OSL     -0.490000       15.9994           0
      6543 MEMB     50       POPS     C31      CL       0.900000       12.0110           0
      6544 MEMB     50       POPS     O32      OBL     -0.630000       15.9994           0
      6545 MEMB     50       POPS     C32      CTL2    -0.220000       12.0110           0
      6546 MEMB     50       POPS     H2X      HAL2     0.900000E-01   1.00800           0
      6547 MEMB     50       POPS     H2Y      HAL2     0.900000E-01   1.00800           0
      6548 MEMB     50       POPS     C23      CTL2    -0.180000       12.0110           0
      6549 MEMB     50       POPS     H3R      HAL2     0.900000E-01   1.00800           0
      6550 MEMB     50       POPS     H3S      HAL2     0.900000E-01   1.00800           0
      6551 MEMB     50       POPS     C24      CTL2    -0.180000       12.0110           0
      6552 MEMB     50       POPS     H4R      HAL2     0.900000E-01   1.00800           0
      6553 MEMB     50       POPS     H4S      HAL2     0.900000E-01   1.00800           0
      6554 MEMB     50       POPS     C25      CTL2    -0.180000       12.0110           0
      6555 MEMB     50       POPS     H5R      HAL2     0.900000E-01   1.00800           0
      6556 MEMB     50       POPS     H5S      HAL2     0.900000E-01   1.00800           0
      6557 MEMB     50       POPS     C26      CTL2    -0.180000       12.0110           0
      6558 MEMB     50       POPS     H6R      HAL2     0.900000E-01   1.00800           0
      6559 MEMB     50       POPS     H6S      HAL2     0.900000E-01   1.00800           0
      6560 MEMB     50       POPS     C27      CTL2    -0.180000       12.0110           0
      6561 MEMB     50       POPS     H7R      HAL2     0.900000E-01   1.00800           0
      6562 MEMB     50       POPS     H7S      HAL2     0.900000E-01   1.00800           0
      6563 MEMB     50       POPS     C28      CTL2    -0.180000       12.0110           0
      6564 MEMB     50       POPS     H8R      HAL2     0.900000E-01   1.00800           0
      6565 MEMB     50       POPS     H8S      HAL2     0.900000E-01   1.00800           0
      6566 MEMB     50       POPS     C29      CEL1    -0.150000       12.0110           0
      6567 MEMB     50       POPS     H91      HEL1     0.150000       1.00800           0
      6568 MEMB     50       POPS     C210     CEL1    -0.150000       12.0110           0
      6569 MEMB     50       POPS     H101     HEL1     0.150000       1.00800           0
      6570 MEMB     50       POPS     C211     CTL2    -0.180000       12.0110           0
      6571 MEMB     50       POPS     H11R     HAL2     0.900000E-01   1.00800           0
      6572 MEMB     50       POPS     H11S     HAL2     0.900000E-01   1.00800           0
      6573 MEMB     50       POPS     C212     CTL2    -0.180000       12.0110           0
      6574 MEMB     50       POPS     H12R     HAL2     0.900000E-01   1.00800           0
      6575 MEMB     50       POPS     H12S     HAL2     0.900000E-01   1.00800           0
      6576 MEMB     50       POPS     C213     CTL2    -0.180000       12.0110           0
      6577 MEMB     50       POPS     H13R     HAL2     0.900000E-01   1.00800           0
      6578 MEMB     50       POPS     H13S     HAL2     0.900000E-01   1.00800           0
      6579 MEMB     50       POPS     C214     CTL2    -0.180000       12.0110           0
      6580 MEMB     50       POPS     H14R     HAL2     0.900000E-01   1.00800           0
      6581 MEMB     50       POPS     H14S     HAL2     0.900000E-01   1.00800           0
      6582 MEMB     50       POPS     C215     CTL2    -0.180000       12.0110           0
      6583 MEMB     50       POPS     H15R     HAL2     0.900000E-01   1.00800           0
      6584 MEMB     50       POPS     H15S     HAL2     0.900000E-01   1.00800           0
      6585 MEMB     50       POPS     C216     CTL2    -0.180000       12.0110           0
      6586 MEMB     50       POPS     H16R     HAL2     0.900000E-01   1.00800           0
      6587 MEMB     50       POPS     H16S     HAL2     0.900000E-01   1.00800           0
      6588 MEMB     50       POPS     C217     CTL2    -0.180000       12.0110           0
      6589 MEMB     50       POPS     H17R     HAL2     0.900000E-01   1.00800           0
      6590 MEMB     50       POPS     H17S     HAL2     0.900000E-01   1.00800           0
      6591 MEMB     50       POPS     C218     CTL3    -0.270000       12.0110           0
      6592 MEMB     50       POPS     H18R     HAL3     0.900000E-01   1.00800           0
      6593 MEMB     50       POPS     H18S     HAL3     0.900000E-01   1.00800           0
      6594 MEMB     50       POPS     H18T     HAL3     0.900000E-01   1.00800           0
      6595 MEMB     50       POPS     C33      CTL2    -0.180000       12.0110           0
      6596 MEMB     50       POPS     H3X      HAL2     0.900000E-01   1.00800           0
      6597 MEMB     50       POPS     H3Y      HAL2     0.900000E-01   1.00800           0
      6598 MEMB     50       POPS     C34      CTL2    -0.180000       12.0110           0
      6599 MEMB     50       POPS     H4X      HAL2     0.900000E-01   1.00800           0
      6600 MEMB     50       POPS     H4Y      HAL2     0.900000E-01   1.00800           0
      6601 MEMB     50       POPS     C35      CTL2    -0.180000       12.0110           0
      6602 MEMB     50       POPS     H5X      HAL2     0.900000E-01   1.00800           0
      6603 MEMB     50       POPS     H5Y      HAL2     0.900000E-01   1.00800           0
      6604 MEMB     50       POPS     C36      CTL2    -0.180000       12.0110           0
      6605 MEMB     50       POPS     H6X      HAL2     0.900000E-01   1.00800           0
      6606 MEMB     50       POPS     H6Y      HAL2     0.900000E-01   1.00800           0
      6607 MEMB     50       POPS     C37      CTL2    -0.180000       12.0110           0
      6608 MEMB     50       POPS     H7X      HAL2     0.900000E-01   1.00800           0
      6609 MEMB     50       POPS     H7Y      HAL2     0.900000E-01   1.00800           0
      6610 MEMB     50       POPS     C38      CTL2    -0.180000       12.0110           0
      6611 MEMB     50       POPS     H8X      HAL2     0.900000E-01   1.00800           0
      6612 MEMB     50       POPS     H8Y      HAL2     0.900000E-01   1.00800           0
      6613 MEMB     50       POPS     C39      CTL2    -0.180000       12.0110           0
      6614 MEMB     50       POPS     H9X      HAL2     0.900000E-01   1.00800           0
      6615 MEMB     50       POPS     H9Y      HAL2     0.900000E-01   1.00800           0
      6616 MEMB     50       POPS     C310     CTL2    -0.180000       12.0110           0
      6617 MEMB     50       POPS     H10X     HAL2     0.900000E-01   1.00800           0
      6618 MEMB     50       POPS     H10Y     HAL2     0.900000E-01   1.00800           0
      6619 MEMB     50       POPS     C311     CTL2    -0.180000       12.0110           0
      6620 MEMB     50       POPS     H11X     HAL2     0.900000E-01   1.00800           0
      6621 MEMB     50       POPS     H11Y     HAL2     0.900000E-01   1.00800           0
      6622 MEMB     50       POPS     C312     CTL2    -0.180000       12.0110           0
      6623 MEMB     50       POPS     H12X     HAL2     0.900000E-01   1.00800           0
      6624 MEMB     50       POPS     H12Y     HAL2     0.900000E-01   1.00800           0
      6625 MEMB     50       POPS     C313     CTL2    -0.180000       12.0110           0
      6626 MEMB     50       POPS     H13X     HAL2     0.900000E-01   1.00800           0
      6627 MEMB     50       POPS     H13Y     HAL2     0.900000E-01   1.00800           0
      6628 MEMB     50       POPS     C314     CTL2    -0.180000       12.0110           0
      6629 MEMB     50       POPS     H14X     HAL2     0.900000E-01   1.00800           0
      6630 MEMB     50       POPS     H14Y     HAL2     0.900000E-01   1.00800           0
      6631 MEMB     50       POPS     C315     CTL2    -0.180000       12.0110           0
      6632 MEMB     50       POPS     H15X     HAL2     0.900000E-01   1.00800           0
      6633 MEMB     50       POPS     H15Y     HAL2     0.900000E-01   1.00800           0
      6634 MEMB     50       POPS     C316     CTL3    -0.270000       12.0110           0
      6635 MEMB     50       POPS     H16X     HAL3     0.900000E-01   1.00800           0
      6636 MEMB     50       POPS     H16Y     HAL3     0.900000E-01   1.00800           0
      6637 MEMB     50       POPS     H16Z     HAL3     0.900000E-01   1.00800           0
      6638 MEMB     51       POPS     N        NH3L    -0.300000       14.0070           0
      6639 MEMB     51       POPS     HN1      HCL      0.330000       1.00800           0
      6640 MEMB     51       POPS     HN2      HCL      0.330000       1.00800           0
      6641 MEMB     51       POPS     HN3      HCL      0.330000       1.00800           0
      6642 MEMB     51       POPS     C12      CTL1     0.210000       12.0110           0
      6643 MEMB     51       POPS     H12A     HBL      0.100000       1.00800           0
      6644 MEMB     51       POPS     C13      CCL      0.340000       12.0110           0
      6645 MEMB     51       POPS     O13A     OCL     -0.670000       15.9994           0
      6646 MEMB     51       POPS     O13B     OCL     -0.670000       15.9994           0
      6647 MEMB     51       POPS     C11      CTL2    -0.800000E-01   12.0110           0
      6648 MEMB     51       POPS     H11A     HAL2     0.900000E-01   1.00800           0
      6649 MEMB     51       POPS     H11B     HAL2     0.900000E-01   1.00800           0
      6650 MEMB     51       POPS     P        PL        1.50000       30.9740           0
      6651 MEMB     51       POPS     O13      O2L     -0.780000       15.9994           0
      6652 MEMB     51       POPS     O14      O2L     -0.780000       15.9994           0
      6653 MEMB     51       POPS     O12      OSLP    -0.570000       15.9994           0
      6654 MEMB     51       POPS     O11      OSLP    -0.570000       15.9994           0
      6655 MEMB     51       POPS     C1       CTL2    -0.800000E-01   12.0110           0
      6656 MEMB     51       POPS     HA       HAL2     0.900000E-01   1.00800           0
      6657 MEMB     51       POPS     HB       HAL2     0.900000E-01   1.00800           0
      6658 MEMB     51       POPS     C2       CTL1     0.170000       12.0110           0
      6659 MEMB     51       POPS     HS       HAL1     0.900000E-01   1.00800           0
      6660 MEMB     51       POPS     O21      OSL     -0.490000       15.9994           0
      6661 MEMB     51       POPS     C21      CL       0.900000       12.0110           0
      6662 MEMB     51       POPS     O22      OBL     -0.630000       15.9994           0
      6663 MEMB     51       POPS     C22      CTL2    -0.220000       12.0110           0
      6664 MEMB     51       POPS     H2R      HAL2     0.900000E-01   1.00800           0
      6665 MEMB     51       POPS     H2S      HAL2     0.900000E-01   1.00800           0
      6666 MEMB     51       POPS     C3       CTL2     0.800000E-01   12.0110           0
      6667 MEMB     51       POPS     HX       HAL2     0.900000E-01   1.00800           0
      6668 MEMB     51       POPS     HY       HAL2     0.900000E-01   1.00800           0
      6669 MEMB     51       POPS     O31      OSL     -0.490000       15.9994           0
      6670 MEMB     51       POPS     C31      CL       0.900000       12.0110           0
      6671 MEMB     51       POPS     O32      OBL     -0.630000       15.9994           0
      6672 MEMB     51       POPS     C32      CTL2    -0.220000       12.0110           0
      6673 MEMB     51       POPS     H2X      HAL2     0.900000E-01   1.00800           0
      6674 MEMB     51       POPS     H2Y      HAL2     0.900000E-01   1.00800           0
      6675 MEMB     51       POPS     C23      CTL2    -0.180000       12.0110           0
      6676 MEMB     51       POPS     H3R      HAL2     0.900000E-01   1.00800           0
      6677 MEMB     51       POPS     H3S      HAL2     0.900000E-01   1.00800           0
      6678 MEMB     51       POPS     C24      CTL2    -0.180000       12.0110           0
      6679 MEMB     51       POPS     H4R      HAL2     0.900000E-01   1.00800           0
      6680 MEMB     51       POPS     H4S      HAL2     0.900000E-01   1.00800           0
      6681 MEMB     51       POPS     C25      CTL2    -0.180000       12.0110           0
      6682 MEMB     51       POPS     H5R      HAL2     0.900000E-01   1.00800           0
      6683 MEMB     51       POPS     H5S      HAL2     0.900000E-01   1.00800           0
      6684 MEMB     51       POPS     C26      CTL2    -0.180000       12.0110           0
      6685 MEMB     51       POPS     H6R      HAL2     0.900000E-01   1.00800           0
      6686 MEMB     51       POPS     H6S      HAL2     0.900000E-01   1.00800           0
      6687 MEMB     51       POPS     C27      CTL2    -0.180000       12.0110           0
      6688 MEMB     51       POPS     H7R      HAL2     0.900000E-01   1.00800           0
      6689 MEMB     51       POPS     H7S      HAL2     0.900000E-01   1.00800           0
      6690 MEMB     51       POPS     C28      CTL2    -0.180000       12.0110           0
      6691 MEMB     51       POPS     H8R      HAL2     0.900000E-01   1.00800           0
      6692 MEMB     51       POPS     H8S      HAL2     0.900000E-01   1.00800           0
      6693 MEMB     51       POPS     C29      CEL1    -0.150000       12.0110           0
      6694 MEMB     51       POPS     H91      HEL1     0.150000       1.00800           0
      6695 MEMB     51       POPS     C210     CEL1    -0.150000       12.0110           0
      6696 MEMB     51       POPS     H101     HEL1     0.150000       1.00800           0
      6697 MEMB     51       POPS     C211     CTL2    -0.180000       12.0110           0
      6698 MEMB     51       POPS     H11R     HAL2     0.900000E-01   1.00800           0
      6699 MEMB     51       POPS     H11S     HAL2     0.900000E-01   1.00800           0
      6700 MEMB     51       POPS     C212     CTL2    -0.180000       12.0110           0
      6701 MEMB     51       POPS     H12R     HAL2     0.900000E-01   1.00800           0
      6702 MEMB     51       POPS     H12S     HAL2     0.900000E-01   1.00800           0
      6703 MEMB     51       POPS     C213     CTL2    -0.180000       12.0110           0
      6704 MEMB     51       POPS     H13R     HAL2     0.900000E-01   1.00800           0
      6705 MEMB     51       POPS     H13S     HAL2     0.900000E-01   1.00800           0
      6706 MEMB     51       POPS     C214     CTL2    -0.180000       12.0110           0
      6707 MEMB     51       POPS     H14R     HAL2     0.900000E-01   1.00800           0
      6708 MEMB     51       POPS     H14S     HAL2     0.900000E-01   1.00800           0
      6709 MEMB     51       POPS     C215     CTL2    -0.180000       12.0110           0
      6710 MEMB     51       POPS     H15R     HAL2     0.900000E-01   1.00800           0
      6711 MEMB     51       POPS     H15S     HAL2     0.900000E-01   1.00800           0
      6712 MEMB     51       POPS     C216     CTL2    -0.180000       12.0110           0
      6713 MEMB     51       POPS     H16R     HAL2     0.900000E-01   1.00800           0
      6714 MEMB     51       POPS     H16S     HAL2     0.900000E-01   1.00800           0
      6715 MEMB     51       POPS     C217     CTL2    -0.180000       12.0110           0
      6716 MEMB     51       POPS     H17R     HAL2     0.900000E-01   1.00800           0
      6717 MEMB     51       POPS     H17S     HAL2     0.900000E-01   1.00800           0
      6718 MEMB     51       POPS     C218     CTL3    -0.270000       12.0110           0
      6719 MEMB     51       POPS     H18R     HAL3     0.900000E-01   1.00800           0
      6720 MEMB     51       POPS     H18S     HAL3     0.900000E-01   1.00800           0
      6721 MEMB     51       POPS     H18T     HAL3     0.900000E-01   1.00800           0
      6722 MEMB     51       POPS     C33      CTL2    -0.180000       12.0110           0
      6723 MEMB     51       POPS     H3X      HAL2     0.900000E-01   1.00800           0
      6724 MEMB     51       POPS     H3Y      HAL2     0.900000E-01   1.00800           0
      6725 MEMB     51       POPS     C34      CTL2    -0.180000       12.0110           0
      6726 MEMB     51       POPS     H4X      HAL2     0.900000E-01   1.00800           0
      6727 MEMB     51       POPS     H4Y      HAL2     0.900000E-01   1.00800           0
      6728 MEMB     51       POPS     C35      CTL2    -0.180000       12.0110           0
      6729 MEMB     51       POPS     H5X      HAL2     0.900000E-01   1.00800           0
      6730 MEMB     51       POPS     H5Y      HAL2     0.900000E-01   1.00800           0
      6731 MEMB     51       POPS     C36      CTL2    -0.180000       12.0110           0
      6732 MEMB     51       POPS     H6X      HAL2     0.900000E-01   1.00800           0
      6733 MEMB     51       POPS     H6Y      HAL2     0.900000E-01   1.00800           0
      6734 MEMB     51       POPS     C37      CTL2    -0.180000       12.0110           0
      6735 MEMB     51       POPS     H7X      HAL2     0.900000E-01   1.00800           0
      6736 MEMB     51       POPS     H7Y      HAL2     0.900000E-01   1.00800           0
      6737 MEMB     51       POPS     C38      CTL2    -0.180000       12.0110           0
      6738 MEMB     51       POPS     H8X      HAL2     0.900000E-01   1.00800           0
      6739 MEMB     51       POPS     H8Y      HAL2     0.900000E-01   1.00800           0
      6740 MEMB     51       POPS     C39      CTL2    -0.180000       12.0110           0
      6741 MEMB     51       POPS     H9X      HAL2     0.900000E-01   1.00800           0
      6742 MEMB     51       POPS     H9Y      HAL2     0.900000E-01   1.00800           0
      6743 MEMB     51       POPS     C310     CTL2    -0.180000       12.0110           0
      6744 MEMB     51       POPS     H10X     HAL2     0.900000E-01   1.00800           0
      6745 MEMB     51       POPS     H10Y     HAL2     0.900000E-01   1.00800           0
      6746 MEMB     51       POPS     C311     CTL2    -0.180000       12.0110           0
      6747 MEMB     51       POPS     H11X     HAL2     0.900000E-01   1.00800           0
      6748 MEMB     51       POPS     H11Y     HAL2     0.900000E-01   1.00800           0
      6749 MEMB     51       POPS     C312     CTL2    -0.180000       12.0110           0
      6750 MEMB     51       POPS     H12X     HAL2     0.900000E-01   1.00800           0
      6751 MEMB     51       POPS     H12Y     HAL2     0.900000E-01   1.00800           0
      6752 MEMB     51       POPS     C313     CTL2    -0.180000       12.0110           0
      6753 MEMB     51       POPS     H13X     HAL2     0.900000E-01   1.00800           0
      6754 MEMB     51       POPS     H13Y     HAL2     0.900000E-01   1.00800           0
      6755 MEMB     51       POPS     C314     CTL2    -0.180000       12.0110           0
      6756 MEMB     51       POPS     H14X     HAL2     0.900000E-01   1.00800           0
      6757 MEMB     51       POPS     H14Y     HAL2     0.900000E-01   1.00800           0
      6758 MEMB     51       POPS     C315     CTL2    -0.180000       12.0110           0
      6759 MEMB     51       POPS     H15X     HAL2     0.900000E-01   1.00800           0
      6760 MEMB     51       POPS     H15Y     HAL2     0.900000E-01   1.00800           0
      6761 MEMB     51       POPS     C316     CTL3    -0.270000       12.0110           0
      6762 MEMB     51       POPS     H16X     HAL3     0.900000E-01   1.00800           0
      6763 MEMB     51       POPS     H16Y     HAL3     0.900000E-01   1.00800           0
      6764 MEMB     51       POPS     H16Z     HAL3     0.900000E-01   1.00800           0
      6765 MEMB     52       POPC     N        NTL     -0.600000       14.0070           0
      6766 MEMB     52       POPC     C12      CTL2    -0.100000       12.0110           0
      6767 MEMB     52       POPC     H12A     HL       0.250000       1.00800           0
      6768 MEMB     52       POPC     H12B     HL       0.250000       1.00800           0
      6769 MEMB     52       POPC     C13      CTL5    -0.350000       12.0110           0
      6770 MEMB     52       POPC     H13A     HL       0.250000       1.00800           0
      6771 MEMB     52       POPC     H13B     HL       0.250000       1.00800           0
      6772 MEMB     52       POPC     H13C     HL       0.250000       1.00800           0
      6773 MEMB     52       POPC     C14      CTL5    -0.350000       12.0110           0
      6774 MEMB     52       POPC     H14A     HL       0.250000       1.00800           0
      6775 MEMB     52       POPC     H14B     HL       0.250000       1.00800           0
      6776 MEMB     52       POPC     H14C     HL       0.250000       1.00800           0
      6777 MEMB     52       POPC     C15      CTL5    -0.350000       12.0110           0
      6778 MEMB     52       POPC     H15A     HL       0.250000       1.00800           0
      6779 MEMB     52       POPC     H15B     HL       0.250000       1.00800           0
      6780 MEMB     52       POPC     H15C     HL       0.250000       1.00800           0
      6781 MEMB     52       POPC     C11      CTL2    -0.800000E-01   12.0110           0
      6782 MEMB     52       POPC     H11A     HAL2     0.900000E-01   1.00800           0
      6783 MEMB     52       POPC     H11B     HAL2     0.900000E-01   1.00800           0
      6784 MEMB     52       POPC     P        PL        1.50000       30.9740           0
      6785 MEMB     52       POPC     O13      O2L     -0.780000       15.9994           0
      6786 MEMB     52       POPC     O14      O2L     -0.780000       15.9994           0
      6787 MEMB     52       POPC     O12      OSLP    -0.570000       15.9994           0
      6788 MEMB     52       POPC     O11      OSLP    -0.570000       15.9994           0
      6789 MEMB     52       POPC     C1       CTL2    -0.800000E-01   12.0110           0
      6790 MEMB     52       POPC     HA       HAL2     0.900000E-01   1.00800           0
      6791 MEMB     52       POPC     HB       HAL2     0.900000E-01   1.00800           0
      6792 MEMB     52       POPC     C2       CTL1     0.170000       12.0110           0
      6793 MEMB     52       POPC     HS       HAL1     0.900000E-01   1.00800           0
      6794 MEMB     52       POPC     O21      OSL     -0.490000       15.9994           0
      6795 MEMB     52       POPC     C21      CL       0.900000       12.0110           0
      6796 MEMB     52       POPC     O22      OBL     -0.630000       15.9994           0
      6797 MEMB     52       POPC     C22      CTL2    -0.220000       12.0110           0
      6798 MEMB     52       POPC     H2R      HAL2     0.900000E-01   1.00800           0
      6799 MEMB     52       POPC     H2S      HAL2     0.900000E-01   1.00800           0
      6800 MEMB     52       POPC     C3       CTL2     0.800000E-01   12.0110           0
      6801 MEMB     52       POPC     HX       HAL2     0.900000E-01   1.00800           0
      6802 MEMB     52       POPC     HY       HAL2     0.900000E-01   1.00800           0
      6803 MEMB     52       POPC     O31      OSL     -0.490000       15.9994           0
      6804 MEMB     52       POPC     C31      CL       0.900000       12.0110           0
      6805 MEMB     52       POPC     O32      OBL     -0.630000       15.9994           0
      6806 MEMB     52       POPC     C32      CTL2    -0.220000       12.0110           0
      6807 MEMB     52       POPC     H2X      HAL2     0.900000E-01   1.00800           0
      6808 MEMB     52       POPC     H2Y      HAL2     0.900000E-01   1.00800           0
      6809 MEMB     52       POPC     C23      CTL2    -0.180000       12.0110           0
      6810 MEMB     52       POPC     H3R      HAL2     0.900000E-01   1.00800           0
      6811 MEMB     52       POPC     H3S      HAL2     0.900000E-01   1.00800           0
      6812 MEMB     52       POPC     C24      CTL2    -0.180000       12.0110           0
      6813 MEMB     52       POPC     H4R      HAL2     0.900000E-01   1.00800           0
      6814 MEMB     52       POPC     H4S      HAL2     0.900000E-01   1.00800           0
      6815 MEMB     52       POPC     C25      CTL2    -0.180000       12.0110           0
      6816 MEMB     52       POPC     H5R      HAL2     0.900000E-01   1.00800           0
      6817 MEMB     52       POPC     H5S      HAL2     0.900000E-01   1.00800           0
      6818 MEMB     52       POPC     C26      CTL2    -0.180000       12.0110           0
      6819 MEMB     52       POPC     H6R      HAL2     0.900000E-01   1.00800           0
      6820 MEMB     52       POPC     H6S      HAL2     0.900000E-01   1.00800           0
      6821 MEMB     52       POPC     C27      CTL2    -0.180000       12.0110           0
      6822 MEMB     52       POPC     H7R      HAL2     0.900000E-01   1.00800           0
      6823 MEMB     52       POPC     H7S      HAL2     0.900000E-01   1.00800           0
      6824 MEMB     52       POPC     C28      CTL2    -0.180000       12.0110           0
      6825 MEMB     52       POPC     H8R      HAL2     0.900000E-01   1.00800           0
      6826 MEMB     52       POPC     H8S      HAL2     0.900000E-01   1.00800           0
      6827 MEMB     52       POPC     C29      CEL1    -0.150000       12.0110           0
      6828 MEMB     52       POPC     H91      HEL1     0.150000       1.00800           0
      6829 MEMB     52       POPC     C210     CEL1    -0.150000       12.0110           0
      6830 MEMB     52       POPC     H101     HEL1     0.150000       1.00800           0
      6831 MEMB     52       POPC     C211     CTL2    -0.180000       12.0110           0
      6832 MEMB     52       POPC     H11R     HAL2     0.900000E-01   1.00800           0
      6833 MEMB     52       POPC     H11S     HAL2     0.900000E-01   1.00800           0
      6834 MEMB     52       POPC     C212     CTL2    -0.180000       12.0110           0
      6835 MEMB     52       POPC     H12R     HAL2     0.900000E-01   1.00800           0
      6836 MEMB     52       POPC     H12S     HAL2     0.900000E-01   1.00800           0
      6837 MEMB     52       POPC     C213     CTL2    -0.180000       12.0110           0
      6838 MEMB     52       POPC     H13R     HAL2     0.900000E-01   1.00800           0
      6839 MEMB     52       POPC     H13S     HAL2     0.900000E-01   1.00800           0
      6840 MEMB     52       POPC     C214     CTL2    -0.180000       12.0110           0
      6841 MEMB     52       POPC     H14R     HAL2     0.900000E-01   1.00800           0
      6842 MEMB     52       POPC     H14S     HAL2     0.900000E-01   1.00800           0
      6843 MEMB     52       POPC     C215     CTL2    -0.180000       12.0110           0
      6844 MEMB     52       POPC     H15R     HAL2     0.900000E-01   1.00800           0
      6845 MEMB     52       POPC     H15S     HAL2     0.900000E-01   1.00800           0
      6846 MEMB     52       POPC     C216     CTL2    -0.180000       12.0110           0
      6847 MEMB     52       POPC     H16R     HAL2     0.900000E-01   1.00800           0
      6848 MEMB     52       POPC     H16S     HAL2     0.900000E-01   1.00800           0
      6849 MEMB     52       POPC     C217     CTL2    -0.180000       12.0110           0
      6850 MEMB     52       POPC     H17R     HAL2     0.900000E-01   1.00800           0
      6851 MEMB     52       POPC     H17S     HAL2     0.900000E-01   1.00800           0
      6852 MEMB     52       POPC     C218     CTL3    -0.270000       12.0110           0
      6853 MEMB     52       POPC     H18R     HAL3     0.900000E-01   1.00800           0
      6854 MEMB     52       POPC     H18S     HAL3     0.900000E-01   1.00800           0
      6855 MEMB     52       POPC     H18T     HAL3     0.900000E-01   1.00800           0
      6856 MEMB     52       POPC     C33      CTL2    -0.180000       12.0110           0
      6857 MEMB     52       POPC     H3X      HAL2     0.900000E-01   1.00800           0
      6858 MEMB     52       POPC     H3Y      HAL2     0.900000E-01   1.00800           0
      6859 MEMB     52       POPC     C34      CTL2    -0.180000       12.0110           0
      6860 MEMB     52       POPC     H4X      HAL2     0.900000E-01   1.00800           0
      6861 MEMB     52       POPC     H4Y      HAL2     0.900000E-01   1.00800           0
      6862 MEMB     52       POPC     C35      CTL2    -0.180000       12.0110           0
      6863 MEMB     52       POPC     H5X      HAL2     0.900000E-01   1.00800           0
      6864 MEMB     52       POPC     H5Y      HAL2     0.900000E-01   1.00800           0
      6865 MEMB     52       POPC     C36      CTL2    -0.180000       12.0110           0
      6866 MEMB     52       POPC     H6X      HAL2     0.900000E-01   1.00800           0
      6867 MEMB     52       POPC     H6Y      HAL2     0.900000E-01   1.00800           0
      6868 MEMB     52       POPC     C37      CTL2    -0.180000       12.0110           0
      6869 MEMB     52       POPC     H7X      HAL2     0.900000E-01   1.00800           0
      6870 MEMB     52       POPC     H7Y      HAL2     0.900000E-01   1.00800           0
      6871 MEMB     52       POPC     C38      CTL2    -0.180000       12.0110           0
      6872 MEMB     52       POPC     H8X      HAL2     0.900000E-01   1.00800           0
      6873 MEMB     52       POPC     H8Y      HAL2     0.900000E-01   1.00800           0
      6874 MEMB     52       POPC     C39      CTL2    -0.180000       12.0110           0
      6875 MEMB     52       POPC     H9X      HAL2     0.900000E-01   1.00800           0
      6876 MEMB     52       POPC     H9Y      HAL2     0.900000E-01   1.00800           0
      6877 MEMB     52       POPC     C310     CTL2    -0.180000       12.0110           0
      6878 MEMB     52       POPC     H10X     HAL2     0.900000E-01   1.00800           0
      6879 MEMB     52       POPC     H10Y     HAL2     0.900000E-01   1.00800           0
      6880 MEMB     52       POPC     C311     CTL2    -0.180000       12.0110           0
      6881 MEMB     52       POPC     H11X     HAL2     0.900000E-01   1.00800           0
      6882 MEMB     52       POPC     H11Y     HAL2     0.900000E-01   1.00800           0
      6883 MEMB     52       POPC     C312     CTL2    -0.180000       12.0110           0
      6884 MEMB     52       POPC     H12X     HAL2     0.900000E-01   1.00800           0
      6885 MEMB     52       POPC     H12Y     HAL2     0.900000E-01   1.00800           0
      6886 MEMB     52       POPC     C313     CTL2    -0.180000       12.0110           0
      6887 MEMB     52       POPC     H13X     HAL2     0.900000E-01   1.00800           0
      6888 MEMB     52       POPC     H13Y     HAL2     0.900000E-01   1.00800           0
      6889 MEMB     52       POPC     C314     CTL2    -0.180000       12.0110           0
      6890 MEMB     52       POPC     H14X     HAL2     0.900000E-01   1.00800           0
      6891 MEMB     52       POPC     H14Y     HAL2     0.900000E-01   1.00800           0
      6892 MEMB     52       POPC     C315     CTL2    -0.180000       12.0110           0
      6893 MEMB     52       POPC     H15X     HAL2     0.900000E-01   1.00800           0
      6894 MEMB     52       POPC     H15Y     HAL2     0.900000E-01   1.00800           0
      6895 MEMB     52       POPC     C316     CTL3    -0.270000       12.0110           0
      6896 MEMB     52       POPC     H16X     HAL3     0.900000E-01   1.00800           0
      6897 MEMB     52       POPC     H16Y     HAL3     0.900000E-01   1.00800           0
      6898 MEMB     52       POPC     H16Z     HAL3     0.900000E-01   1.00800           0
      6899 MEMB     53       POPC     N        NTL     -0.600000       14.0070           0
      6900 MEMB     53       POPC     C12      CTL2    -0.100000       12.0110           0
      6901 MEMB     53       POPC     H12A     HL       0.250000       1.00800           0
      6902 MEMB     53       POPC     H12B     HL       0.250000       1.00800           0
      6903 MEMB     53       POPC     C13      CTL5    -0.350000       12.0110           0
      6904 MEMB     53       POPC     H13A     HL       0.250000       1.00800           0
      6905 MEMB     53       POPC     H13B     HL       0.250000       1.00800           0
      6906 MEMB     53       POPC     H13C     HL       0.250000       1.00800           0
      6907 MEMB     53       POPC     C14      CTL5    -0.350000       12.0110           0
      6908 MEMB     53       POPC     H14A     HL       0.250000       1.00800           0
      6909 MEMB     53       POPC     H14B     HL       0.250000       1.00800           0
      6910 MEMB     53       POPC     H14C     HL       0.250000       1.00800           0
      6911 MEMB     53       POPC     C15      CTL5    -0.350000       12.0110           0
      6912 MEMB     53       POPC     H15A     HL       0.250000       1.00800           0
      6913 MEMB     53       POPC     H15B     HL       0.250000       1.00800           0
      6914 MEMB     53       POPC     H15C     HL       0.250000       1.00800           0
      6915 MEMB     53       POPC     C11      CTL2    -0.800000E-01   12.0110           0
      6916 MEMB     53       POPC     H11A     HAL2     0.900000E-01   1.00800           0
      6917 MEMB     53       POPC     H11B     HAL2     0.900000E-01   1.00800           0
      6918 MEMB     53       POPC     P        PL        1.50000       30.9740           0
      6919 MEMB     53       POPC     O13      O2L     -0.780000       15.9994           0
      6920 MEMB     53       POPC     O14      O2L     -0.780000       15.9994           0
      6921 MEMB     53       POPC     O12      OSLP    -0.570000       15.9994           0
      6922 MEMB     53       POPC     O11      OSLP    -0.570000       15.9994           0
      6923 MEMB     53       POPC     C1       CTL2    -0.800000E-01   12.0110           0
      6924 MEMB     53       POPC     HA       HAL2     0.900000E-01   1.00800           0
      6925 MEMB     53       POPC     HB       HAL2     0.900000E-01   1.00800           0
      6926 MEMB     53       POPC     C2       CTL1     0.170000       12.0110           0
      6927 MEMB     53       POPC     HS       HAL1     0.900000E-01   1.00800           0
      6928 MEMB     53       POPC     O21      OSL     -0.490000       15.9994           0
      6929 MEMB     53       POPC     C21      CL       0.900000       12.0110           0
      6930 MEMB     53       POPC     O22      OBL     -0.630000       15.9994           0
      6931 MEMB     53       POPC     C22      CTL2    -0.220000       12.0110           0
      6932 MEMB     53       POPC     H2R      HAL2     0.900000E-01   1.00800           0
      6933 MEMB     53       POPC     H2S      HAL2     0.900000E-01   1.00800           0
      6934 MEMB     53       POPC     C3       CTL2     0.800000E-01   12.0110           0
      6935 MEMB     53       POPC     HX       HAL2     0.900000E-01   1.00800           0
      6936 MEMB     53       POPC     HY       HAL2     0.900000E-01   1.00800           0
      6937 MEMB     53       POPC     O31      OSL     -0.490000       15.9994           0
      6938 MEMB     53       POPC     C31      CL       0.900000       12.0110           0
      6939 MEMB     53       POPC     O32      OBL     -0.630000       15.9994           0
      6940 MEMB     53       POPC     C32      CTL2    -0.220000       12.0110           0
      6941 MEMB     53       POPC     H2X      HAL2     0.900000E-01   1.00800           0
      6942 MEMB     53       POPC     H2Y      HAL2     0.900000E-01   1.00800           0
      6943 MEMB     53       POPC     C23      CTL2    -0.180000       12.0110           0
      6944 MEMB     53       POPC     H3R      HAL2     0.900000E-01   1.00800           0
      6945 MEMB     53       POPC     H3S      HAL2     0.900000E-01   1.00800           0
      6946 MEMB     53       POPC     C24      CTL2    -0.180000       12.0110           0
      6947 MEMB     53       POPC     H4R      HAL2     0.900000E-01   1.00800           0
      6948 MEMB     53       POPC     H4S      HAL2     0.900000E-01   1.00800           0
      6949 MEMB     53       POPC     C25      CTL2    -0.180000       12.0110           0
      6950 MEMB     53       POPC     H5R      HAL2     0.900000E-01   1.00800           0
      6951 MEMB     53       POPC     H5S      HAL2     0.900000E-01   1.00800           0
      6952 MEMB     53       POPC     C26      CTL2    -0.180000       12.0110           0
      6953 MEMB     53       POPC     H6R      HAL2     0.900000E-01   1.00800           0
      6954 MEMB     53       POPC     H6S      HAL2     0.900000E-01   1.00800           0
      6955 MEMB     53       POPC     C27      CTL2    -0.180000       12.0110           0
      6956 MEMB     53       POPC     H7R      HAL2     0.900000E-01   1.00800           0
      6957 MEMB     53       POPC     H7S      HAL2     0.900000E-01   1.00800           0
      6958 MEMB     53       POPC     C28      CTL2    -0.180000       12.0110           0
      6959 MEMB     53       POPC     H8R      HAL2     0.900000E-01   1.00800           0
      6960 MEMB     53       POPC     H8S      HAL2     0.900000E-01   1.00800           0
      6961 MEMB     53       POPC     C29      CEL1    -0.150000       12.0110           0
      6962 MEMB     53       POPC     H91      HEL1     0.150000       1.00800           0
      6963 MEMB     53       POPC     C210     CEL1    -0.150000       12.0110           0
      6964 MEMB     53       POPC     H101     HEL1     0.150000       1.00800           0
      6965 MEMB     53       POPC     C211     CTL2    -0.180000       12.0110           0
      6966 MEMB     53       POPC     H11R     HAL2     0.900000E-01   1.00800           0
      6967 MEMB     53       POPC     H11S     HAL2     0.900000E-01   1.00800           0
      6968 MEMB     53       POPC     C212     CTL2    -0.180000       12.0110           0
      6969 MEMB     53       POPC     H12R     HAL2     0.900000E-01   1.00800           0
      6970 MEMB     53       POPC     H12S     HAL2     0.900000E-01   1.00800           0
      6971 MEMB     53       POPC     C213     CTL2    -0.180000       12.0110           0
      6972 MEMB     53       POPC     H13R     HAL2     0.900000E-01   1.00800           0
      6973 MEMB     53       POPC     H13S     HAL2     0.900000E-01   1.00800           0
      6974 MEMB     53       POPC     C214     CTL2    -0.180000       12.0110           0
      6975 MEMB     53       POPC     H14R     HAL2     0.900000E-01   1.00800           0
      6976 MEMB     53       POPC     H14S     HAL2     0.900000E-01   1.00800           0
      6977 MEMB     53       POPC     C215     CTL2    -0.180000       12.0110           0
      6978 MEMB     53       POPC     H15R     HAL2     0.900000E-01   1.00800           0
      6979 MEMB     53       POPC     H15S     HAL2     0.900000E-01   1.00800           0
      6980 MEMB     53       POPC     C216     CTL2    -0.180000       12.0110           0
      6981 MEMB     53       POPC     H16R     HAL2     0.900000E-01   1.00800           0
      6982 MEMB     53       POPC     H16S     HAL2     0.900000E-01   1.00800           0
      6983 MEMB     53       POPC     C217     CTL2    -0.180000       12.0110           0
      6984 MEMB     53       POPC     H17R     HAL2     0.900000E-01   1.00800           0
      6985 MEMB     53       POPC     H17S     HAL2     0.900000E-01   1.00800           0
      6986 MEMB     53       POPC     C218     CTL3    -0.270000       12.0110           0
      6987 MEMB     53       POPC     H18R     HAL3     0.900000E-01   1.00800           0
      6988 MEMB     53       POPC     H18S     HAL3     0.900000E-01   1.00800           0
      6989 MEMB     53       POPC     H18T     HAL3     0.900000E-01   1.00800           0
      6990 MEMB     53       POPC     C33      CTL2    -0.180000       12.0110           0
      6991 MEMB     53       POPC     H3X      HAL2     0.900000E-01   1.00800           0
      6992 MEMB     53       POPC     H3Y      HAL2     0.900000E-01   1.00800           0
      6993 MEMB     53       POPC     C34      CTL2    -0.180000       12.0110           0
      6994 MEMB     53       POPC     H4X      HAL2     0.900000E-01   1.00800           0
      6995 MEMB     53       POPC     H4Y      HAL2     0.900000E-01   1.00800           0
      6996 MEMB     53       POPC     C35      CTL2    -0.180000       12.0110           0
      6997 MEMB     53       POPC     H5X      HAL2     0.900000E-01   1.00800           0
      6998 MEMB     53       POPC     H5Y      HAL2     0.900000E-01   1.00800           0
      6999 MEMB     53       POPC     C36      CTL2    -0.180000       12.0110           0
      7000 MEMB     53       POPC     H6X      HAL2     0.900000E-01   1.00800           0
      7001 MEMB     53       POPC     H6Y      HAL2     0.900000E-01   1.00800           0
      7002 MEMB     53       POPC     C37      CTL2    -0.180000       12.0110           0
      7003 MEMB     53       POPC     H7X      HAL2     0.900000E-01   1.00800           0
      7004 MEMB     53       POPC     H7Y      HAL2     0.900000E-01   1.00800           0
      7005 MEMB     53       POPC     C38      CTL2    -0.180000       12.0110           0
      7006 MEMB     53       POPC     H8X      HAL2     0.900000E-01   1.00800           0
      7007 MEMB     53       POPC     H8Y      HAL2     0.900000E-01   1.00800           0
      7008 MEMB     53       POPC     C39      CTL2    -0.180000       12.0110           0
      7009 MEMB     53       POPC     H9X      HAL2     0.900000E-01   1.00800           0
      7010 MEMB     53       POPC     H9Y      HAL2     0.900000E-01   1.00800           0
      7011 MEMB     53       POPC     C310     CTL2    -0.180000       12.0110           0
      7012 MEMB     53       POPC     H10X     HAL2     0.900000E-01   1.00800           0
      7013 MEMB     53       POPC     H10Y     HAL2     0.900000E-01   1.00800           0
      7014 MEMB     53       POPC     C311     CTL2    -0.180000       12.0110           0
      7015 MEMB     53       POPC     H11X     HAL2     0.900000E-01   1.00800           0
      7016 MEMB     53       POPC     H11Y     HAL2     0.900000E-01   1.00800           0
      7017 MEMB     53       POPC     C312     CTL2    -0.180000       12.0110           0
      7018 MEMB     53       POPC     H12X     HAL2     0.900000E-01   1.00800           0
      7019 MEMB     53       POPC     H12Y     HAL2     0.900000E-01   1.00800           0
      7020 MEMB     53       POPC     C313     CTL2    -0.180000       12.0110           0
      7021 MEMB     53       POPC     H13X     HAL2     0.900000E-01   1.00800           0
      7022 MEMB     53       POPC     H13Y     HAL2     0.900000E-01   1.00800           0
      7023 MEMB     53       POPC     C314     CTL2    -0.180000       12.0110           0
      7024 MEMB     53       POPC     H14X     HAL2     0.900000E-01   1.00800           0
      7025 MEMB     53       POPC     H14Y     HAL2     0.900000E-01   1.00800           0
      7026 MEMB     53       POPC     C315     CTL2    -0.180000       12.0110           0
      7027 MEMB     53       POPC     H15X     HAL2     0.900000E-01   1.00800           0
      7028 MEMB     53       POPC     H15Y     HAL2     0.900000E-01   1.00800           0
      7029 MEMB     53       POPC     C316     CTL3    -0.270000       12.0110           0
      7030 MEMB     53       POPC     H16X     HAL3     0.900000E-01   1.00800           0
      7031 MEMB     53       POPC     H16Y     HAL3     0.900000E-01   1.00800           0
      7032 MEMB     53       POPC     H16Z     HAL3     0.900000E-01   1.00800           0
      7033 MEMB     54       POPC     N        NTL     -0.600000       14.0070           0
      7034 MEMB     54       POPC     C12      CTL2    -0.100000       12.0110           0
      7035 MEMB     54       POPC     H12A     HL       0.250000       1.00800           0
      7036 MEMB     54       POPC     H12B     HL       0.250000       1.00800           0
      7037 MEMB     54       POPC     C13      CTL5    -0.350000       12.0110           0
      7038 MEMB     54       POPC     H13A     HL       0.250000       1.00800           0
      7039 MEMB     54       POPC     H13B     HL       0.250000       1.00800           0
      7040 MEMB     54       POPC     H13C     HL       0.250000       1.00800           0
      7041 MEMB     54       POPC     C14      CTL5    -0.350000       12.0110           0
      7042 MEMB     54       POPC     H14A     HL       0.250000       1.00800           0
      7043 MEMB     54       POPC     H14B     HL       0.250000       1.00800           0
      7044 MEMB     54       POPC     H14C     HL       0.250000       1.00800           0
      7045 MEMB     54       POPC     C15      CTL5    -0.350000       12.0110           0
      7046 MEMB     54       POPC     H15A     HL       0.250000       1.00800           0
      7047 MEMB     54       POPC     H15B     HL       0.250000       1.00800           0
      7048 MEMB     54       POPC     H15C     HL       0.250000       1.00800           0
      7049 MEMB     54       POPC     C11      CTL2    -0.800000E-01   12.0110           0
      7050 MEMB     54       POPC     H11A     HAL2     0.900000E-01   1.00800           0
      7051 MEMB     54       POPC     H11B     HAL2     0.900000E-01   1.00800           0
      7052 MEMB     54       POPC     P        PL        1.50000       30.9740           0
      7053 MEMB     54       POPC     O13      O2L     -0.780000       15.9994           0
      7054 MEMB     54       POPC     O14      O2L     -0.780000       15.9994           0
      7055 MEMB     54       POPC     O12      OSLP    -0.570000       15.9994           0
      7056 MEMB     54       POPC     O11      OSLP    -0.570000       15.9994           0
      7057 MEMB     54       POPC     C1       CTL2    -0.800000E-01   12.0110           0
      7058 MEMB     54       POPC     HA       HAL2     0.900000E-01   1.00800           0
      7059 MEMB     54       POPC     HB       HAL2     0.900000E-01   1.00800           0
      7060 MEMB     54       POPC     C2       CTL1     0.170000       12.0110           0
      7061 MEMB     54       POPC     HS       HAL1     0.900000E-01   1.00800           0
      7062 MEMB     54       POPC     O21      OSL     -0.490000       15.9994           0
      7063 MEMB     54       POPC     C21      CL       0.900000       12.0110           0
      7064 MEMB     54       POPC     O22      OBL     -0.630000       15.9994           0
      7065 MEMB     54       POPC     C22      CTL2    -0.220000       12.0110           0
      7066 MEMB     54       POPC     H2R      HAL2     0.900000E-01   1.00800           0
      7067 MEMB     54       POPC     H2S      HAL2     0.900000E-01   1.00800           0
      7068 MEMB     54       POPC     C3       CTL2     0.800000E-01   12.0110           0
      7069 MEMB     54       POPC     HX       HAL2     0.900000E-01   1.00800           0
      7070 MEMB     54       POPC     HY       HAL2     0.900000E-01   1.00800           0
      7071 MEMB     54       POPC     O31      OSL     -0.490000       15.9994           0
      7072 MEMB     54       POPC     C31      CL       0.900000       12.0110           0
      7073 MEMB     54       POPC     O32      OBL     -0.630000       15.9994           0
      7074 MEMB     54       POPC     C32      CTL2    -0.220000       12.0110           0
      7075 MEMB     54       POPC     H2X      HAL2     0.900000E-01   1.00800           0
      7076 MEMB     54       POPC     H2Y      HAL2     0.900000E-01   1.00800           0
      7077 MEMB     54       POPC     C23      CTL2    -0.180000       12.0110           0
      7078 MEMB     54       POPC     H3R      HAL2     0.900000E-01   1.00800           0
      7079 MEMB     54       POPC     H3S      HAL2     0.900000E-01   1.00800           0
      7080 MEMB     54       POPC     C24      CTL2    -0.180000       12.0110           0
      7081 MEMB     54       POPC     H4R      HAL2     0.900000E-01   1.00800           0
      7082 MEMB     54       POPC     H4S      HAL2     0.900000E-01   1.00800           0
      7083 MEMB     54       POPC     C25      CTL2    -0.180000       12.0110           0
      7084 MEMB     54       POPC     H5R      HAL2     0.900000E-01   1.00800           0
      7085 MEMB     54       POPC     H5S      HAL2     0.900000E-01   1.00800           0
      7086 MEMB     54       POPC     C26      CTL2    -0.180000       12.0110           0
      7087 MEMB     54       POPC     H6R      HAL2     0.900000E-01   1.00800           0
      7088 MEMB     54       POPC     H6S      HAL2     0.900000E-01   1.00800           0
      7089 MEMB     54       POPC     C27      CTL2    -0.180000       12.0110           0
      7090 MEMB     54       POPC     H7R      HAL2     0.900000E-01   1.00800           0
      7091 MEMB     54       POPC     H7S      HAL2     0.900000E-01   1.00800           0
      7092 MEMB     54       POPC     C28      CTL2    -0.180000       12.0110           0
      7093 MEMB     54       POPC     H8R      HAL2     0.900000E-01   1.00800           0
      7094 MEMB     54       POPC     H8S      HAL2     0.900000E-01   1.00800           0
      7095 MEMB     54       POPC     C29      CEL1    -0.150000       12.0110           0
      7096 MEMB     54       POPC     H91      HEL1     0.150000       1.00800           0
      7097 MEMB     54       POPC     C210     CEL1    -0.150000       12.0110           0
      7098 MEMB     54       POPC     H101     HEL1     0.150000       1.00800           0
      7099 MEMB     54       POPC     C211     CTL2    -0.180000       12.0110           0
      7100 MEMB     54       POPC     H11R     HAL2     0.900000E-01   1.00800           0
      7101 MEMB     54       POPC     H11S     HAL2     0.900000E-01   1.00800           0
      7102 MEMB     54       POPC     C212     CTL2    -0.180000       12.0110           0
      7103 MEMB     54       POPC     H12R     HAL2     0.900000E-01   1.00800           0
      7104 MEMB     54       POPC     H12S     HAL2     0.900000E-01   1.00800           0
      7105 MEMB     54       POPC     C213     CTL2    -0.180000       12.0110           0
      7106 MEMB     54       POPC     H13R     HAL2     0.900000E-01   1.00800           0
      7107 MEMB     54       POPC     H13S     HAL2     0.900000E-01   1.00800           0
      7108 MEMB     54       POPC     C214     CTL2    -0.180000       12.0110           0
      7109 MEMB     54       POPC     H14R     HAL2     0.900000E-01   1.00800           0
      7110 MEMB     54       POPC     H14S     HAL2     0.900000E-01   1.00800           0
      7111 MEMB     54       POPC     C215     CTL2    -0.180000       12.0110           0
      7112 MEMB     54       POPC     H15R     HAL2     0.900000E-01   1.00800           0
      7113 MEMB     54       POPC     H15S     HAL2     0.900000E-01   1.00800           0
      7114 MEMB     54       POPC     C216     CTL2    -0.180000       12.0110           0
      7115 MEMB     54       POPC     H16R     HAL2     0.900000E-01   1.00800           0
      7116 MEMB     54       POPC     H16S     HAL2     0.900000E-01   1.00800           0
      7117 MEMB     54       POPC     C217     CTL2    -0.180000       12.0110           0
      7118 MEMB     54       POPC     H17R     HAL2     0.900000E-01   1.00800           0
      7119 MEMB     54       POPC     H17S     HAL2     0.900000E-01   1.00800           0
      7120 MEMB     54       POPC     C218     CTL3    -0.270000       12.0110           0
      7121 MEMB     54       POPC     H18R     HAL3     0.900000E-01   1.00800           0
      7122 MEMB     54       POPC     H18S     HAL3     0.900000E-01   1.00800           0
      7123 MEMB     54       POPC     H18T     HAL3     0.900000E-01   1.00800           0
      7124 MEMB     54       POPC     C33      CTL2    -0.180000       12.0110           0
      7125 MEMB     54       POPC     H3X      HAL2     0.900000E-01   1.00800           0
      7126 MEMB     54       POPC     H3Y      HAL2     0.900000E-01   1.00800           0
      7127 MEMB     54       POPC     C34      CTL2    -0.180000       12.0110           0
      7128 MEMB     54       POPC     H4X      HAL2     0.900000E-01   1.00800           0
      7129 MEMB     54       POPC     H4Y      HAL2     0.900000E-01   1.00800           0
      7130 MEMB     54       POPC     C35      CTL2    -0.180000       12.0110           0
      7131 MEMB     54       POPC     H5X      HAL2     0.900000E-01   1.00800           0
      7132 MEMB     54       POPC     H5Y      HAL2     0.900000E-01   1.00800           0
      7133 MEMB     54       POPC     C36      CTL2    -0.180000       12.0110           0
      7134 MEMB     54       POPC     H6X      HAL2     0.900000E-01   1.00800           0
      7135 MEMB     54       POPC     H6Y      HAL2     0.900000E-01   1.00800           0
      7136 MEMB     54       POPC     C37      CTL2    -0.180000       12.0110           0
      7137 MEMB     54       POPC     H7X      HAL2     0.900000E-01   1.00800           0
      7138 MEMB     54       POPC     H7Y      HAL2     0.900000E-01   1.00800           0
      7139 MEMB     54       POPC     C38      CTL2    -0.180000       12.0110           0
      7140 MEMB     54       POPC     H8X      HAL2     0.900000E-01   1.00800           0
      7141 MEMB     54       POPC     H8Y      HAL2     0.900000E-01   1.00800           0
      7142 MEMB     54       POPC     C39      CTL2    -0.180000       12.0110           0
      7143 MEMB     54       POPC     H9X      HAL2     0.900000E-01   1.00800           0
      7144 MEMB     54       POPC     H9Y      HAL2     0.900000E-01   1.00800           0
      7145 MEMB     54       POPC     C310     CTL2    -0.180000       12.0110           0
      7146 MEMB     54       POPC     H10X     HAL2     0.900000E-01   1.00800           0
      7147 MEMB     54       POPC     H10Y     HAL2     0.900000E-01   1.00800           0
      7148 MEMB     54       POPC     C311     CTL2    -0.180000       12.0110           0
      7149 MEMB     54       POPC     H11X     HAL2     0.900000E-01   1.00800           0
      7150 MEMB     54       POPC     H11Y     HAL2     0.900000E-01   1.00800           0
      7151 MEMB     54       POPC     C312     CTL2    -0.180000       12.0110           0
      7152 MEMB     54       POPC     H12X     HAL2     0.900000E-01   1.00800           0
      7153 MEMB     54       POPC     H12Y     HAL2     0.900000E-01   1.00800           0
      7154 MEMB     54       POPC     C313     CTL2    -0.180000       12.0110           0
      7155 MEMB     54       POPC     H13X     HAL2     0.900000E-01   1.00800           0
      7156 MEMB     54       POPC     H13Y     HAL2     0.900000E-01   1.00800           0
      7157 MEMB     54       POPC     C314     CTL2    -0.180000       12.0110           0
      7158 MEMB     54       POPC     H14X     HAL2     0.900000E-01   1.00800           0
      7159 MEMB     54       POPC     H14Y     HAL2     0.900000E-01   1.00800           0
      7160 MEMB     54       POPC     C315     CTL2    -0.180000       12.0110           0
      7161 MEMB     54       POPC     H15X     HAL2     0.900000E-01   1.00800           0
      7162 MEMB     54       POPC     H15Y     HAL2     0.900000E-01   1.00800           0
      7163 MEMB     54       POPC     C316     CTL3    -0.270000       12.0110           0
      7164 MEMB     54       POPC     H16X     HAL3     0.900000E-01   1.00800           0
      7165 MEMB     54       POPC     H16Y     HAL3     0.900000E-01   1.00800           0
      7166 MEMB     54       POPC     H16Z     HAL3     0.900000E-01   1.00800           0
      7167 MEMB     55       POPS     N        NH3L    -0.300000       14.0070           0
      7168 MEMB     55       POPS     HN1      HCL      0.330000       1.00800           0
      7169 MEMB     55       POPS     HN2      HCL      0.330000       1.00800           0
      7170 MEMB     55       POPS     HN3      HCL      0.330000       1.00800           0
      7171 MEMB     55       POPS     C12      CTL1     0.210000       12.0110           0
      7172 MEMB     55       POPS     H12A     HBL      0.100000       1.00800           0
      7173 MEMB     55       POPS     C13      CCL      0.340000       12.0110           0
      7174 MEMB     55       POPS     O13A     OCL     -0.670000       15.9994           0
      7175 MEMB     55       POPS     O13B     OCL     -0.670000       15.9994           0
      7176 MEMB     55       POPS     C11      CTL2    -0.800000E-01   12.0110           0
      7177 MEMB     55       POPS     H11A     HAL2     0.900000E-01   1.00800           0
      7178 MEMB     55       POPS     H11B     HAL2     0.900000E-01   1.00800           0
      7179 MEMB     55       POPS     P        PL        1.50000       30.9740           0
      7180 MEMB     55       POPS     O13      O2L     -0.780000       15.9994           0
      7181 MEMB     55       POPS     O14      O2L     -0.780000       15.9994           0
      7182 MEMB     55       POPS     O12      OSLP    -0.570000       15.9994           0
      7183 MEMB     55       POPS     O11      OSLP    -0.570000       15.9994           0
      7184 MEMB     55       POPS     C1       CTL2    -0.800000E-01   12.0110           0
      7185 MEMB     55       POPS     HA       HAL2     0.900000E-01   1.00800           0
      7186 MEMB     55       POPS     HB       HAL2     0.900000E-01   1.00800           0
      7187 MEMB     55       POPS     C2       CTL1     0.170000       12.0110           0
      7188 MEMB     55       POPS     HS       HAL1     0.900000E-01   1.00800           0
      7189 MEMB     55       POPS     O21      OSL     -0.490000       15.9994           0
      7190 MEMB     55       POPS     C21      CL       0.900000       12.0110           0
      7191 MEMB     55       POPS     O22      OBL     -0.630000       15.9994           0
      7192 MEMB     55       POPS     C22      CTL2    -0.220000       12.0110           0
      7193 MEMB     55       POPS     H2R      HAL2     0.900000E-01   1.00800           0
      7194 MEMB     55       POPS     H2S      HAL2     0.900000E-01   1.00800           0
      7195 MEMB     55       POPS     C3       CTL2     0.800000E-01   12.0110           0
      7196 MEMB     55       POPS     HX       HAL2     0.900000E-01   1.00800           0
      7197 MEMB     55       POPS     HY       HAL2     0.900000E-01   1.00800           0
      7198 MEMB     55       POPS     O31      OSL     -0.490000       15.9994           0
      7199 MEMB     55       POPS     C31      CL       0.900000       12.0110           0
      7200 MEMB     55       POPS     O32      OBL     -0.630000       15.9994           0
      7201 MEMB     55       POPS     C32      CTL2    -0.220000       12.0110           0
      7202 MEMB     55       POPS     H2X      HAL2     0.900000E-01   1.00800           0
      7203 MEMB     55       POPS     H2Y      HAL2     0.900000E-01   1.00800           0
      7204 MEMB     55       POPS     C23      CTL2    -0.180000       12.0110           0
      7205 MEMB     55       POPS     H3R      HAL2     0.900000E-01   1.00800           0
      7206 MEMB     55       POPS     H3S      HAL2     0.900000E-01   1.00800           0
      7207 MEMB     55       POPS     C24      CTL2    -0.180000       12.0110           0
      7208 MEMB     55       POPS     H4R      HAL2     0.900000E-01   1.00800           0
      7209 MEMB     55       POPS     H4S      HAL2     0.900000E-01   1.00800           0
      7210 MEMB     55       POPS     C25      CTL2    -0.180000       12.0110           0
      7211 MEMB     55       POPS     H5R      HAL2     0.900000E-01   1.00800           0
      7212 MEMB     55       POPS     H5S      HAL2     0.900000E-01   1.00800           0
      7213 MEMB     55       POPS     C26      CTL2    -0.180000       12.0110           0
      7214 MEMB     55       POPS     H6R      HAL2     0.900000E-01   1.00800           0
      7215 MEMB     55       POPS     H6S      HAL2     0.900000E-01   1.00800           0
      7216 MEMB     55       POPS     C27      CTL2    -0.180000       12.0110           0
      7217 MEMB     55       POPS     H7R      HAL2     0.900000E-01   1.00800           0
      7218 MEMB     55       POPS     H7S      HAL2     0.900000E-01   1.00800           0
      7219 MEMB     55       POPS     C28      CTL2    -0.180000       12.0110           0
      7220 MEMB     55       POPS     H8R      HAL2     0.900000E-01   1.00800           0
      7221 MEMB     55       POPS     H8S      HAL2     0.900000E-01   1.00800           0
      7222 MEMB     55       POPS     C29      CEL1    -0.150000       12.0110           0
      7223 MEMB     55       POPS     H91      HEL1     0.150000       1.00800           0
      7224 MEMB     55       POPS     C210     CEL1    -0.150000       12.0110           0
      7225 MEMB     55       POPS     H101     HEL1     0.150000       1.00800           0
      7226 MEMB     55       POPS     C211     CTL2    -0.180000       12.0110           0
      7227 MEMB     55       POPS     H11R     HAL2     0.900000E-01   1.00800           0
      7228 MEMB     55       POPS     H11S     HAL2     0.900000E-01   1.00800           0
      7229 MEMB     55       POPS     C212     CTL2    -0.180000       12.0110           0
      7230 MEMB     55       POPS     H12R     HAL2     0.900000E-01   1.00800           0
      7231 MEMB     55       POPS     H12S     HAL2     0.900000E-01   1.00800           0
      7232 MEMB     55       POPS     C213     CTL2    -0.180000       12.0110           0
      7233 MEMB     55       POPS     H13R     HAL2     0.900000E-01   1.00800           0
      7234 MEMB     55       POPS     H13S     HAL2     0.900000E-01   1.00800           0
      7235 MEMB     55       POPS     C214     CTL2    -0.180000       12.0110           0
      7236 MEMB     55       POPS     H14R     HAL2     0.900000E-01   1.00800           0
      7237 MEMB     55       POPS     H14S     HAL2     0.900000E-01   1.00800           0
      7238 MEMB     55       POPS     C215     CTL2    -0.180000       12.0110           0
      7239 MEMB     55       POPS     H15R     HAL2     0.900000E-01   1.00800           0
      7240 MEMB     55       POPS     H15S     HAL2     0.900000E-01   1.00800           0
      7241 MEMB     55       POPS     C216     CTL2    -0.180000       12.0110           0
      7242 MEMB     55       POPS     H16R     HAL2     0.900000E-01   1.00800           0
      7243 MEMB     55       POPS     H16S     HAL2     0.900000E-01   1.00800           0
      7244 MEMB     55       POPS     C217     CTL2    -0.180000       12.0110           0
      7245 MEMB     55       POPS     H17R     HAL2     0.900000E-01   1.00800           0
      7246 MEMB     55       POPS     H17S     HAL2     0.900000E-01   1.00800           0
      7247 MEMB     55       POPS     C218     CTL3    -0.270000       12.0110           0
      7248 MEMB     55       POPS     H18R     HAL3     0.900000E-01   1.00800           0
      7249 MEMB     55       POPS     H18S     HAL3     0.900000E-01   1.00800           0
      7250 MEMB     55       POPS     H18T     HAL3     0.900000E-01   1.00800           0
      7251 MEMB     55       POPS     C33      CTL2    -0.180000       12.0110           0
      7252 MEMB     55       POPS     H3X      HAL2     0.900000E-01   1.00800           0
      7253 MEMB     55       POPS     H3Y      HAL2     0.900000E-01   1.00800           0
      7254 MEMB     55       POPS     C34      CTL2    -0.180000       12.0110           0
      7255 MEMB     55       POPS     H4X      HAL2     0.900000E-01   1.00800           0
      7256 MEMB     55       POPS     H4Y      HAL2     0.900000E-01   1.00800           0
      7257 MEMB     55       POPS     C35      CTL2    -0.180000       12.0110           0
      7258 MEMB     55       POPS     H5X      HAL2     0.900000E-01   1.00800           0
      7259 MEMB     55       POPS     H5Y      HAL2     0.900000E-01   1.00800           0
      7260 MEMB     55       POPS     C36      CTL2    -0.180000       12.0110           0
      7261 MEMB     55       POPS     H6X      HAL2     0.900000E-01   1.00800           0
      7262 MEMB     55       POPS     H6Y      HAL2     0.900000E-01   1.00800           0
      7263 MEMB     55       POPS     C37      CTL2    -0.180000       12.0110           0
      7264 MEMB     55       POPS     H7X      HAL2     0.900000E-01   1.00800           0
      7265 MEMB     55       POPS     H7Y      HAL2     0.900000E-01   1.00800           0
      7266 MEMB     55       POPS     C38      CTL2    -0.180000       12.0110           0
      7267 MEMB     55       POPS     H8X      HAL2     0.900000E-01   1.00800           0
      7268 MEMB     55       POPS     H8Y      HAL2     0.900000E-01   1.00800           0
      7269 MEMB     55       POPS     C39      CTL2    -0.180000       12.0110           0
      7270 MEMB     55       POPS     H9X      HAL2     0.900000E-01   1.00800           0
      7271 MEMB     55       POPS     H9Y      HAL2     0.900000E-01   1.00800           0
      7272 MEMB     55       POPS     C310     CTL2    -0.180000       12.0110           0
      7273 MEMB     55       POPS     H10X     HAL2     0.900000E-01   1.00800           0
      7274 MEMB     55       POPS     H10Y     HAL2     0.900000E-01   1.00800           0
      7275 MEMB     55       POPS     C311     CTL2    -0.180000       12.0110           0
      7276 MEMB     55       POPS     H11X     HAL2     0.900000E-01   1.00800           0
      7277 MEMB     55       POPS     H11Y     HAL2     0.900000E-01   1.00800           0
      7278 MEMB     55       POPS     C312     CTL2    -0.180000       12.0110           0
      7279 MEMB     55       POPS     H12X     HAL2     0.900000E-01   1.00800           0
      7280 MEMB     55       POPS     H12Y     HAL2     0.900000E-01   1.00800           0
      7281 MEMB     55       POPS     C313     CTL2    -0.180000       12.0110           0
      7282 MEMB     55       POPS     H13X     HAL2     0.900000E-01   1.00800           0
      7283 MEMB     55       POPS     H13Y     HAL2     0.900000E-01   1.00800           0
      7284 MEMB     55       POPS     C314     CTL2    -0.180000       12.0110           0
      7285 MEMB     55       POPS     H14X     HAL2     0.900000E-01   1.00800           0
      7286 MEMB     55       POPS     H14Y     HAL2     0.900000E-01   1.00800           0
      7287 MEMB     55       POPS     C315     CTL2    -0.180000       12.0110           0
      7288 MEMB     55       POPS     H15X     HAL2     0.900000E-01   1.00800           0
      7289 MEMB     55       POPS     H15Y     HAL2     0.900000E-01   1.00800           0
      7290 MEMB     55       POPS     C316     CTL3    -0.270000       12.0110           0
      7291 MEMB     55       POPS     H16X     HAL3     0.900000E-01   1.00800           0
      7292 MEMB     55       POPS     H16Y     HAL3     0.900000E-01   1.00800           0
      7293 MEMB     55       POPS     H16Z     HAL3     0.900000E-01   1.00800           0
      7294 MEMB     56       POPC     N        NTL     -0.600000       14.0070           0
      7295 MEMB     56       POPC     C12      CTL2    -0.100000       12.0110           0
      7296 MEMB     56       POPC     H12A     HL       0.250000       1.00800           0
      7297 MEMB     56       POPC     H12B     HL       0.250000       1.00800           0
      7298 MEMB     56       POPC     C13      CTL5    -0.350000       12.0110           0
      7299 MEMB     56       POPC     H13A     HL       0.250000       1.00800           0
      7300 MEMB     56       POPC     H13B     HL       0.250000       1.00800           0
      7301 MEMB     56       POPC     H13C     HL       0.250000       1.00800           0
      7302 MEMB     56       POPC     C14      CTL5    -0.350000       12.0110           0
      7303 MEMB     56       POPC     H14A     HL       0.250000       1.00800           0
      7304 MEMB     56       POPC     H14B     HL       0.250000       1.00800           0
      7305 MEMB     56       POPC     H14C     HL       0.250000       1.00800           0
      7306 MEMB     56       POPC     C15      CTL5    -0.350000       12.0110           0
      7307 MEMB     56       POPC     H15A     HL       0.250000       1.00800           0
      7308 MEMB     56       POPC     H15B     HL       0.250000       1.00800           0
      7309 MEMB     56       POPC     H15C     HL       0.250000       1.00800           0
      7310 MEMB     56       POPC     C11      CTL2    -0.800000E-01   12.0110           0
      7311 MEMB     56       POPC     H11A     HAL2     0.900000E-01   1.00800           0
      7312 MEMB     56       POPC     H11B     HAL2     0.900000E-01   1.00800           0
      7313 MEMB     56       POPC     P        PL        1.50000       30.9740           0
      7314 MEMB     56       POPC     O13      O2L     -0.780000       15.9994           0
      7315 MEMB     56       POPC     O14      O2L     -0.780000       15.9994           0
      7316 MEMB     56       POPC     O12      OSLP    -0.570000       15.9994           0
      7317 MEMB     56       POPC     O11      OSLP    -0.570000       15.9994           0
      7318 MEMB     56       POPC     C1       CTL2    -0.800000E-01   12.0110           0
      7319 MEMB     56       POPC     HA       HAL2     0.900000E-01   1.00800           0
      7320 MEMB     56       POPC     HB       HAL2     0.900000E-01   1.00800           0
      7321 MEMB     56       POPC     C2       CTL1     0.170000       12.0110           0
      7322 MEMB     56       POPC     HS       HAL1     0.900000E-01   1.00800           0
      7323 MEMB     56       POPC     O21      OSL     -0.490000       15.9994           0
      7324 MEMB     56       POPC     C21      CL       0.900000       12.0110           0
      7325 MEMB     56       POPC     O22      OBL     -0.630000       15.9994           0
      7326 MEMB     56       POPC     C22      CTL2    -0.220000       12.0110           0
      7327 MEMB     56       POPC     H2R      HAL2     0.900000E-01   1.00800           0
      7328 MEMB     56       POPC     H2S      HAL2     0.900000E-01   1.00800           0
      7329 MEMB     56       POPC     C3       CTL2     0.800000E-01   12.0110           0
      7330 MEMB     56       POPC     HX       HAL2     0.900000E-01   1.00800           0
      7331 MEMB     56       POPC     HY       HAL2     0.900000E-01   1.00800           0
      7332 MEMB     56       POPC     O31      OSL     -0.490000       15.9994           0
      7333 MEMB     56       POPC     C31      CL       0.900000       12.0110           0
      7334 MEMB     56       POPC     O32      OBL     -0.630000       15.9994           0
      7335 MEMB     56       POPC     C32      CTL2    -0.220000       12.0110           0
      7336 MEMB     56       POPC     H2X      HAL2     0.900000E-01   1.00800           0
      7337 MEMB     56       POPC     H2Y      HAL2     0.900000E-01   1.00800           0
      7338 MEMB     56       POPC     C23      CTL2    -0.180000       12.0110           0
      7339 MEMB     56       POPC     H3R      HAL2     0.900000E-01   1.00800           0
      7340 MEMB     56       POPC     H3S      HAL2     0.900000E-01   1.00800           0
      7341 MEMB     56       POPC     C24      CTL2    -0.180000       12.0110           0
      7342 MEMB     56       POPC     H4R      HAL2     0.900000E-01   1.00800           0
      7343 MEMB     56       POPC     H4S      HAL2     0.900000E-01   1.00800           0
      7344 MEMB     56       POPC     C25      CTL2    -0.180000       12.0110           0
      7345 MEMB     56       POPC     H5R      HAL2     0.900000E-01   1.00800           0
      7346 MEMB     56       POPC     H5S      HAL2     0.900000E-01   1.00800           0
      7347 MEMB     56       POPC     C26      CTL2    -0.180000       12.0110           0
      7348 MEMB     56       POPC     H6R      HAL2     0.900000E-01   1.00800           0
      7349 MEMB     56       POPC     H6S      HAL2     0.900000E-01   1.00800           0
      7350 MEMB     56       POPC     C27      CTL2    -0.180000       12.0110           0
      7351 MEMB     56       POPC     H7R      HAL2     0.900000E-01   1.00800           0
      7352 MEMB     56       POPC     H7S      HAL2     0.900000E-01   1.00800           0
      7353 MEMB     56       POPC     C28      CTL2    -0.180000       12.0110           0
      7354 MEMB     56       POPC     H8R      HAL2     0.900000E-01   1.00800           0
      7355 MEMB     56       POPC     H8S      HAL2     0.900000E-01   1.00800           0
      7356 MEMB     56       POPC     C29      CEL1    -0.150000       12.0110           0
      7357 MEMB     56       POPC     H91      HEL1     0.150000       1.00800           0
      7358 MEMB     56       POPC     C210     CEL1    -0.150000       12.0110           0
      7359 MEMB     56       POPC     H101     HEL1     0.150000       1.00800           0
      7360 MEMB     56       POPC     C211     CTL2    -0.180000       12.0110           0
      7361 MEMB     56       POPC     H11R     HAL2     0.900000E-01   1.00800           0
      7362 MEMB     56       POPC     H11S     HAL2     0.900000E-01   1.00800           0
      7363 MEMB     56       POPC     C212     CTL2    -0.180000       12.0110           0
      7364 MEMB     56       POPC     H12R     HAL2     0.900000E-01   1.00800           0
      7365 MEMB     56       POPC     H12S     HAL2     0.900000E-01   1.00800           0
      7366 MEMB     56       POPC     C213     CTL2    -0.180000       12.0110           0
      7367 MEMB     56       POPC     H13R     HAL2     0.900000E-01   1.00800           0
      7368 MEMB     56       POPC     H13S     HAL2     0.900000E-01   1.00800           0
      7369 MEMB     56       POPC     C214     CTL2    -0.180000       12.0110           0
      7370 MEMB     56       POPC     H14R     HAL2     0.900000E-01   1.00800           0
      7371 MEMB     56       POPC     H14S     HAL2     0.900000E-01   1.00800           0
      7372 MEMB     56       POPC     C215     CTL2    -0.180000       12.0110           0
      7373 MEMB     56       POPC     H15R     HAL2     0.900000E-01   1.00800           0
      7374 MEMB     56       POPC     H15S     HAL2     0.900000E-01   1.00800           0
      7375 MEMB     56       POPC     C216     CTL2    -0.180000       12.0110           0
      7376 MEMB     56       POPC     H16R     HAL2     0.900000E-01   1.00800           0
      7377 MEMB     56       POPC     H16S     HAL2     0.900000E-01   1.00800           0
      7378 MEMB     56       POPC     C217     CTL2    -0.180000       12.0110           0
      7379 MEMB     56       POPC     H17R     HAL2     0.900000E-01   1.00800           0
      7380 MEMB     56       POPC     H17S     HAL2     0.900000E-01   1.00800           0
      7381 MEMB     56       POPC     C218     CTL3    -0.270000       12.0110           0
      7382 MEMB     56       POPC     H18R     HAL3     0.900000E-01   1.00800           0
      7383 MEMB     56       POPC     H18S     HAL3     0.900000E-01   1.00800           0
      7384 MEMB     56       POPC     H18T     HAL3     0.900000E-01   1.00800           0
      7385 MEMB     56       POPC     C33      CTL2    -0.180000       12.0110           0
      7386 MEMB     56       POPC     H3X      HAL2     0.900000E-01   1.00800           0
      7387 MEMB     56       POPC     H3Y      HAL2     0.900000E-01   1.00800           0
      7388 MEMB     56       POPC     C34      CTL2    -0.180000       12.0110           0
      7389 MEMB     56       POPC     H4X      HAL2     0.900000E-01   1.00800           0
      7390 MEMB     56       POPC     H4Y      HAL2     0.900000E-01   1.00800           0
      7391 MEMB     56       POPC     C35      CTL2    -0.180000       12.0110           0
      7392 MEMB     56       POPC     H5X      HAL2     0.900000E-01   1.00800           0
      7393 MEMB     56       POPC     H5Y      HAL2     0.900000E-01   1.00800           0
      7394 MEMB     56       POPC     C36      CTL2    -0.180000       12.0110           0
      7395 MEMB     56       POPC     H6X      HAL2     0.900000E-01   1.00800           0
      7396 MEMB     56       POPC     H6Y      HAL2     0.900000E-01   1.00800           0
      7397 MEMB     56       POPC     C37      CTL2    -0.180000       12.0110           0
      7398 MEMB     56       POPC     H7X      HAL2     0.900000E-01   1.00800           0
      7399 MEMB     56       POPC     H7Y      HAL2     0.900000E-01   1.00800           0
      7400 MEMB     56       POPC     C38      CTL2    -0.180000       12.0110           0
      7401 MEMB     56       POPC     H8X      HAL2     0.900000E-01   1.00800           0
      7402 MEMB     56       POPC     H8Y      HAL2     0.900000E-01   1.00800           0
      7403 MEMB     56       POPC     C39      CTL2    -0.180000       12.0110           0
      7404 MEMB     56       POPC     H9X      HAL2     0.900000E-01   1.00800           0
      7405 MEMB     56       POPC     H9Y      HAL2     0.900000E-01   1.00800           0
      7406 MEMB     56       POPC     C310     CTL2    -0.180000       12.0110           0
      7407 MEMB     56       POPC     H10X     HAL2     0.900000E-01   1.00800           0
      7408 MEMB     56       POPC     H10Y     HAL2     0.900000E-01   1.00800           0
      7409 MEMB     56       POPC     C311     CTL2    -0.180000       12.0110           0
      7410 MEMB     56       POPC     H11X     HAL2     0.900000E-01   1.00800           0
      7411 MEMB     56       POPC     H11Y     HAL2     0.900000E-01   1.00800           0
      7412 MEMB     56       POPC     C312     CTL2    -0.180000       12.0110           0
      7413 MEMB     56       POPC     H12X     HAL2     0.900000E-01   1.00800           0
      7414 MEMB     56       POPC     H12Y     HAL2     0.900000E-01   1.00800           0
      7415 MEMB     56       POPC     C313     CTL2    -0.180000       12.0110           0
      7416 MEMB     56       POPC     H13X     HAL2     0.900000E-01   1.00800           0
      7417 MEMB     56       POPC     H13Y     HAL2     0.900000E-01   1.00800           0
      7418 MEMB     56       POPC     C314     CTL2    -0.180000       12.0110           0
      7419 MEMB     56       POPC     H14X     HAL2     0.900000E-01   1.00800           0
      7420 MEMB     56       POPC     H14Y     HAL2     0.900000E-01   1.00800           0
      7421 MEMB     56       POPC     C315     CTL2    -0.180000       12.0110           0
      7422 MEMB     56       POPC     H15X     HAL2     0.900000E-01   1.00800           0
      7423 MEMB     56       POPC     H15Y     HAL2     0.900000E-01   1.00800           0
      7424 MEMB     56       POPC     C316     CTL3    -0.270000       12.0110           0
      7425 MEMB     56       POPC     H16X     HAL3     0.900000E-01   1.00800           0
      7426 MEMB     56       POPC     H16Y     HAL3     0.900000E-01   1.00800           0
      7427 MEMB     56       POPC     H16Z     HAL3     0.900000E-01   1.00800           0
      7428 MEMB     57       POPC     N        NTL     -0.600000       14.0070           0
      7429 MEMB     57       POPC     C12      CTL2    -0.100000       12.0110           0
      7430 MEMB     57       POPC     H12A     HL       0.250000       1.00800           0
      7431 MEMB     57       POPC     H12B     HL       0.250000       1.00800           0
      7432 MEMB     57       POPC     C13      CTL5    -0.350000       12.0110           0
      7433 MEMB     57       POPC     H13A     HL       0.250000       1.00800           0
      7434 MEMB     57       POPC     H13B     HL       0.250000       1.00800           0
      7435 MEMB     57       POPC     H13C     HL       0.250000       1.00800           0
      7436 MEMB     57       POPC     C14      CTL5    -0.350000       12.0110           0
      7437 MEMB     57       POPC     H14A     HL       0.250000       1.00800           0
      7438 MEMB     57       POPC     H14B     HL       0.250000       1.00800           0
      7439 MEMB     57       POPC     H14C     HL       0.250000       1.00800           0
      7440 MEMB     57       POPC     C15      CTL5    -0.350000       12.0110           0
      7441 MEMB     57       POPC     H15A     HL       0.250000       1.00800           0
      7442 MEMB     57       POPC     H15B     HL       0.250000       1.00800           0
      7443 MEMB     57       POPC     H15C     HL       0.250000       1.00800           0
      7444 MEMB     57       POPC     C11      CTL2    -0.800000E-01   12.0110           0
      7445 MEMB     57       POPC     H11A     HAL2     0.900000E-01   1.00800           0
      7446 MEMB     57       POPC     H11B     HAL2     0.900000E-01   1.00800           0
      7447 MEMB     57       POPC     P        PL        1.50000       30.9740           0
      7448 MEMB     57       POPC     O13      O2L     -0.780000       15.9994           0
      7449 MEMB     57       POPC     O14      O2L     -0.780000       15.9994           0
      7450 MEMB     57       POPC     O12      OSLP    -0.570000       15.9994           0
      7451 MEMB     57       POPC     O11      OSLP    -0.570000       15.9994           0
      7452 MEMB     57       POPC     C1       CTL2    -0.800000E-01   12.0110           0
      7453 MEMB     57       POPC     HA       HAL2     0.900000E-01   1.00800           0
      7454 MEMB     57       POPC     HB       HAL2     0.900000E-01   1.00800           0
      7455 MEMB     57       POPC     C2       CTL1     0.170000       12.0110           0
      7456 MEMB     57       POPC     HS       HAL1     0.900000E-01   1.00800           0
      7457 MEMB     57       POPC     O21      OSL     -0.490000       15.9994           0
      7458 MEMB     57       POPC     C21      CL       0.900000       12.0110           0
      7459 MEMB     57       POPC     O22      OBL     -0.630000       15.9994           0
      7460 MEMB     57       POPC     C22      CTL2    -0.220000       12.0110           0
      7461 MEMB     57       POPC     H2R      HAL2     0.900000E-01   1.00800           0
      7462 MEMB     57       POPC     H2S      HAL2     0.900000E-01   1.00800           0
      7463 MEMB     57       POPC     C3       CTL2     0.800000E-01   12.0110           0
      7464 MEMB     57       POPC     HX       HAL2     0.900000E-01   1.00800           0
      7465 MEMB     57       POPC     HY       HAL2     0.900000E-01   1.00800           0
      7466 MEMB     57       POPC     O31      OSL     -0.490000       15.9994           0
      7467 MEMB     57       POPC     C31      CL       0.900000       12.0110           0
      7468 MEMB     57       POPC     O32      OBL     -0.630000       15.9994           0
      7469 MEMB     57       POPC     C32      CTL2    -0.220000       12.0110           0
      7470 MEMB     57       POPC     H2X      HAL2     0.900000E-01   1.00800           0
      7471 MEMB     57       POPC     H2Y      HAL2     0.900000E-01   1.00800           0
      7472 MEMB     57       POPC     C23      CTL2    -0.180000       12.0110           0
      7473 MEMB     57       POPC     H3R      HAL2     0.900000E-01   1.00800           0
      7474 MEMB     57       POPC     H3S      HAL2     0.900000E-01   1.00800           0
      7475 MEMB     57       POPC     C24      CTL2    -0.180000       12.0110           0
      7476 MEMB     57       POPC     H4R      HAL2     0.900000E-01   1.00800           0
      7477 MEMB     57       POPC     H4S      HAL2     0.900000E-01   1.00800           0
      7478 MEMB     57       POPC     C25      CTL2    -0.180000       12.0110           0
      7479 MEMB     57       POPC     H5R      HAL2     0.900000E-01   1.00800           0
      7480 MEMB     57       POPC     H5S      HAL2     0.900000E-01   1.00800           0
      7481 MEMB     57       POPC     C26      CTL2    -0.180000       12.0110           0
      7482 MEMB     57       POPC     H6R      HAL2     0.900000E-01   1.00800           0
      7483 MEMB     57       POPC     H6S      HAL2     0.900000E-01   1.00800           0
      7484 MEMB     57       POPC     C27      CTL2    -0.180000       12.0110           0
      7485 MEMB     57       POPC     H7R      HAL2     0.900000E-01   1.00800           0
      7486 MEMB     57       POPC     H7S      HAL2     0.900000E-01   1.00800           0
      7487 MEMB     57       POPC     C28      CTL2    -0.180000       12.0110           0
      7488 MEMB     57       POPC     H8R      HAL2     0.900000E-01   1.00800           0
      7489 MEMB     57       POPC     H8S      HAL2     0.900000E-01   1.00800           0
      7490 MEMB     57       POPC     C29      CEL1    -0.150000       12.0110           0
      7491 MEMB     57       POPC     H91      HEL1     0.150000       1.00800           0
      7492 MEMB     57       POPC     C210     CEL1    -0.150000       12.0110           0
      7493 MEMB     57       POPC     H101     HEL1     0.150000       1.00800           0
      7494 MEMB     57       POPC     C211     CTL2    -0.180000       12.0110           0
      7495 MEMB     57       POPC     H11R     HAL2     0.900000E-01   1.00800           0
      7496 MEMB     57       POPC     H11S     HAL2     0.900000E-01   1.00800           0
      7497 MEMB     57       POPC     C212     CTL2    -0.180000       12.0110           0
      7498 MEMB     57       POPC     H12R     HAL2     0.900000E-01   1.00800           0
      7499 MEMB     57       POPC     H12S     HAL2     0.900000E-01   1.00800           0
      7500 MEMB     57       POPC     C213     CTL2    -0.180000       12.0110           0
      7501 MEMB     57       POPC     H13R     HAL2     0.900000E-01   1.00800           0
      7502 MEMB     57       POPC     H13S     HAL2     0.900000E-01   1.00800           0
      7503 MEMB     57       POPC     C214     CTL2    -0.180000       12.0110           0
      7504 MEMB     57       POPC     H14R     HAL2     0.900000E-01   1.00800           0
      7505 MEMB     57       POPC     H14S     HAL2     0.900000E-01   1.00800           0
      7506 MEMB     57       POPC     C215     CTL2    -0.180000       12.0110           0
      7507 MEMB     57       POPC     H15R     HAL2     0.900000E-01   1.00800           0
      7508 MEMB     57       POPC     H15S     HAL2     0.900000E-01   1.00800           0
      7509 MEMB     57       POPC     C216     CTL2    -0.180000       12.0110           0
      7510 MEMB     57       POPC     H16R     HAL2     0.900000E-01   1.00800           0
      7511 MEMB     57       POPC     H16S     HAL2     0.900000E-01   1.00800           0
      7512 MEMB     57       POPC     C217     CTL2    -0.180000       12.0110           0
      7513 MEMB     57       POPC     H17R     HAL2     0.900000E-01   1.00800           0
      7514 MEMB     57       POPC     H17S     HAL2     0.900000E-01   1.00800           0
      7515 MEMB     57       POPC     C218     CTL3    -0.270000       12.0110           0
      7516 MEMB     57       POPC     H18R     HAL3     0.900000E-01   1.00800           0
      7517 MEMB     57       POPC     H18S     HAL3     0.900000E-01   1.00800           0
      7518 MEMB     57       POPC     H18T     HAL3     0.900000E-01   1.00800           0
      7519 MEMB     57       POPC     C33      CTL2    -0.180000       12.0110           0
      7520 MEMB     57       POPC     H3X      HAL2     0.900000E-01   1.00800           0
      7521 MEMB     57       POPC     H3Y      HAL2     0.900000E-01   1.00800           0
      7522 MEMB     57       POPC     C34      CTL2    -0.180000       12.0110           0
      7523 MEMB     57       POPC     H4X      HAL2     0.900000E-01   1.00800           0
      7524 MEMB     57       POPC     H4Y      HAL2     0.900000E-01   1.00800           0
      7525 MEMB     57       POPC     C35      CTL2    -0.180000       12.0110           0
      7526 MEMB     57       POPC     H5X      HAL2     0.900000E-01   1.00800           0
      7527 MEMB     57       POPC     H5Y      HAL2     0.900000E-01   1.00800           0
      7528 MEMB     57       POPC     C36      CTL2    -0.180000       12.0110           0
      7529 MEMB     57       POPC     H6X      HAL2     0.900000E-01   1.00800           0
      7530 MEMB     57       POPC     H6Y      HAL2     0.900000E-01   1.00800           0
      7531 MEMB     57       POPC     C37      CTL2    -0.180000       12.0110           0
      7532 MEMB     57       POPC     H7X      HAL2     0.900000E-01   1.00800           0
      7533 MEMB     57       POPC     H7Y      HAL2     0.900000E-01   1.00800           0
      7534 MEMB     57       POPC     C38      CTL2    -0.180000       12.0110           0
      7535 MEMB     57       POPC     H8X      HAL2     0.900000E-01   1.00800           0
      7536 MEMB     57       POPC     H8Y      HAL2     0.900000E-01   1.00800           0
      7537 MEMB     57       POPC     C39      CTL2    -0.180000       12.0110           0
      7538 MEMB     57       POPC     H9X      HAL2     0.900000E-01   1.00800           0
      7539 MEMB     57       POPC     H9Y      HAL2     0.900000E-01   1.00800           0
      7540 MEMB     57       POPC     C310     CTL2    -0.180000       12.0110           0
      7541 MEMB     57       POPC     H10X     HAL2     0.900000E-01   1.00800           0
      7542 MEMB     57       POPC     H10Y     HAL2     0.900000E-01   1.00800           0
      7543 MEMB     57       POPC     C311     CTL2    -0.180000       12.0110           0
      7544 MEMB     57       POPC     H11X     HAL2     0.900000E-01   1.00800           0
      7545 MEMB     57       POPC     H11Y     HAL2     0.900000E-01   1.00800           0
      7546 MEMB     57       POPC     C312     CTL2    -0.180000       12.0110           0
      7547 MEMB     57       POPC     H12X     HAL2     0.900000E-01   1.00800           0
      7548 MEMB     57       POPC     H12Y     HAL2     0.900000E-01   1.00800           0
      7549 MEMB     57       POPC     C313     CTL2    -0.180000       12.0110           0
      7550 MEMB     57       POPC     H13X     HAL2     0.900000E-01   1.00800           0
      7551 MEMB     57       POPC     H13Y     HAL2     0.900000E-01   1.00800           0
      7552 MEMB     57       POPC     C314     CTL2    -0.180000       12.0110           0
      7553 MEMB     57       POPC     H14X     HAL2     0.900000E-01   1.00800           0
      7554 MEMB     57       POPC     H14Y     HAL2     0.900000E-01   1.00800           0
      7555 MEMB     57       POPC     C315     CTL2    -0.180000       12.0110           0
      7556 MEMB     57       POPC     H15X     HAL2     0.900000E-01   1.00800           0
      7557 MEMB     57       POPC     H15Y     HAL2     0.900000E-01   1.00800           0
      7558 MEMB     57       POPC     C316     CTL3    -0.270000       12.0110           0
      7559 MEMB     57       POPC     H16X     HAL3     0.900000E-01   1.00800           0
      7560 MEMB     57       POPC     H16Y     HAL3     0.900000E-01   1.00800           0
      7561 MEMB     57       POPC     H16Z     HAL3     0.900000E-01   1.00800           0
      7562 MEMB     58       POPS     N        NH3L    -0.300000       14.0070           0
      7563 MEMB     58       POPS     HN1      HCL      0.330000       1.00800           0
      7564 MEMB     58       POPS     HN2      HCL      0.330000       1.00800           0
      7565 MEMB     58       POPS     HN3      HCL      0.330000       1.00800           0
      7566 MEMB     58       POPS     C12      CTL1     0.210000       12.0110           0
      7567 MEMB     58       POPS     H12A     HBL      0.100000       1.00800           0
      7568 MEMB     58       POPS     C13      CCL      0.340000       12.0110           0
      7569 MEMB     58       POPS     O13A     OCL     -0.670000       15.9994           0
      7570 MEMB     58       POPS     O13B     OCL     -0.670000       15.9994           0
      7571 MEMB     58       POPS     C11      CTL2    -0.800000E-01   12.0110           0
      7572 MEMB     58       POPS     H11A     HAL2     0.900000E-01   1.00800           0
      7573 MEMB     58       POPS     H11B     HAL2     0.900000E-01   1.00800           0
      7574 MEMB     58       POPS     P        PL        1.50000       30.9740           0
      7575 MEMB     58       POPS     O13      O2L     -0.780000       15.9994           0
      7576 MEMB     58       POPS     O14      O2L     -0.780000       15.9994           0
      7577 MEMB     58       POPS     O12      OSLP    -0.570000       15.9994           0
      7578 MEMB     58       POPS     O11      OSLP    -0.570000       15.9994           0
      7579 MEMB     58       POPS     C1       CTL2    -0.800000E-01   12.0110           0
      7580 MEMB     58       POPS     HA       HAL2     0.900000E-01   1.00800           0
      7581 MEMB     58       POPS     HB       HAL2     0.900000E-01   1.00800           0
      7582 MEMB     58       POPS     C2       CTL1     0.170000       12.0110           0
      7583 MEMB     58       POPS     HS       HAL1     0.900000E-01   1.00800           0
      7584 MEMB     58       POPS     O21      OSL     -0.490000       15.9994           0
      7585 MEMB     58       POPS     C21      CL       0.900000       12.0110           0
      7586 MEMB     58       POPS     O22      OBL     -0.630000       15.9994           0
      7587 MEMB     58       POPS     C22      CTL2    -0.220000       12.0110           0
      7588 MEMB     58       POPS     H2R      HAL2     0.900000E-01   1.00800           0
      7589 MEMB     58       POPS     H2S      HAL2     0.900000E-01   1.00800           0
      7590 MEMB     58       POPS     C3       CTL2     0.800000E-01   12.0110           0
      7591 MEMB     58       POPS     HX       HAL2     0.900000E-01   1.00800           0
      7592 MEMB     58       POPS     HY       HAL2     0.900000E-01   1.00800           0
      7593 MEMB     58       POPS     O31      OSL     -0.490000       15.9994           0
      7594 MEMB     58       POPS     C31      CL       0.900000       12.0110           0
      7595 MEMB     58       POPS     O32      OBL     -0.630000       15.9994           0
      7596 MEMB     58       POPS     C32      CTL2    -0.220000       12.0110           0
      7597 MEMB     58       POPS     H2X      HAL2     0.900000E-01   1.00800           0
      7598 MEMB     58       POPS     H2Y      HAL2     0.900000E-01   1.00800           0
      7599 MEMB     58       POPS     C23      CTL2    -0.180000       12.0110           0
      7600 MEMB     58       POPS     H3R      HAL2     0.900000E-01   1.00800           0
      7601 MEMB     58       POPS     H3S      HAL2     0.900000E-01   1.00800           0
      7602 MEMB     58       POPS     C24      CTL2    -0.180000       12.0110           0
      7603 MEMB     58       POPS     H4R      HAL2     0.900000E-01   1.00800           0
      7604 MEMB     58       POPS     H4S      HAL2     0.900000E-01   1.00800           0
      7605 MEMB     58       POPS     C25      CTL2    -0.180000       12.0110           0
      7606 MEMB     58       POPS     H5R      HAL2     0.900000E-01   1.00800           0
      7607 MEMB     58       POPS     H5S      HAL2     0.900000E-01   1.00800           0
      7608 MEMB     58       POPS     C26      CTL2    -0.180000       12.0110           0
      7609 MEMB     58       POPS     H6R      HAL2     0.900000E-01   1.00800           0
      7610 MEMB     58       POPS     H6S      HAL2     0.900000E-01   1.00800           0
      7611 MEMB     58       POPS     C27      CTL2    -0.180000       12.0110           0
      7612 MEMB     58       POPS     H7R      HAL2     0.900000E-01   1.00800           0
      7613 MEMB     58       POPS     H7S      HAL2     0.900000E-01   1.00800           0
      7614 MEMB     58       POPS     C28      CTL2    -0.180000       12.0110           0
      7615 MEMB     58       POPS     H8R      HAL2     0.900000E-01   1.00800           0
      7616 MEMB     58       POPS     H8S      HAL2     0.900000E-01   1.00800           0
      7617 MEMB     58       POPS     C29      CEL1    -0.150000       12.0110           0
      7618 MEMB     58       POPS     H91      HEL1     0.150000       1.00800           0
      7619 MEMB     58       POPS     C210     CEL1    -0.150000       12.0110           0
      7620 MEMB     58       POPS     H101     HEL1     0.150000       1.00800           0
      7621 MEMB     58       POPS     C211     CTL2    -0.180000       12.0110           0
      7622 MEMB     58       POPS     H11R     HAL2     0.900000E-01   1.00800           0
      7623 MEMB     58       POPS     H11S     HAL2     0.900000E-01   1.00800           0
      7624 MEMB     58       POPS     C212     CTL2    -0.180000       12.0110           0
      7625 MEMB     58       POPS     H12R     HAL2     0.900000E-01   1.00800           0
      7626 MEMB     58       POPS     H12S     HAL2     0.900000E-01   1.00800           0
      7627 MEMB     58       POPS     C213     CTL2    -0.180000       12.0110           0
      7628 MEMB     58       POPS     H13R     HAL2     0.900000E-01   1.00800           0
      7629 MEMB     58       POPS     H13S     HAL2     0.900000E-01   1.00800           0
      7630 MEMB     58       POPS     C214     CTL2    -0.180000       12.0110           0
      7631 MEMB     58       POPS     H14R     HAL2     0.900000E-01   1.00800           0
      7632 MEMB     58       POPS     H14S     HAL2     0.900000E-01   1.00800           0
      7633 MEMB     58       POPS     C215     CTL2    -0.180000       12.0110           0
      7634 MEMB     58       POPS     H15R     HAL2     0.900000E-01   1.00800           0
      7635 MEMB     58       POPS     H15S     HAL2     0.900000E-01   1.00800           0
      7636 MEMB     58       POPS     C216     CTL2    -0.180000       12.0110           0
      7637 MEMB     58       POPS     H16R     HAL2     0.900000E-01   1.00800           0
      7638 MEMB     58       POPS     H16S     HAL2     0.900000E-01   1.00800           0
      7639 MEMB     58       POPS     C217     CTL2    -0.180000       12.0110           0
      7640 MEMB     58       POPS     H17R     HAL2     0.900000E-01   1.00800           0
      7641 MEMB     58       POPS     H17S     HAL2     0.900000E-01   1.00800           0
      7642 MEMB     58       POPS     C218     CTL3    -0.270000       12.0110           0
      7643 MEMB     58       POPS     H18R     HAL3     0.900000E-01   1.00800           0
      7644 MEMB     58       POPS     H18S     HAL3     0.900000E-01   1.00800           0
      7645 MEMB     58       POPS     H18T     HAL3     0.900000E-01   1.00800           0
      7646 MEMB     58       POPS     C33      CTL2    -0.180000       12.0110           0
      7647 MEMB     58       POPS     H3X      HAL2     0.900000E-01   1.00800           0
      7648 MEMB     58       POPS     H3Y      HAL2     0.900000E-01   1.00800           0
      7649 MEMB     58       POPS     C34      CTL2    -0.180000       12.0110           0
      7650 MEMB     58       POPS     H4X      HAL2     0.900000E-01   1.00800           0
      7651 MEMB     58       POPS     H4Y      HAL2     0.900000E-01   1.00800           0
      7652 MEMB     58       POPS     C35      CTL2    -0.180000       12.0110           0
      7653 MEMB     58       POPS     H5X      HAL2     0.900000E-01   1.00800           0
      7654 MEMB     58       POPS     H5Y      HAL2     0.900000E-01   1.00800           0
      7655 MEMB     58       POPS     C36      CTL2    -0.180000       12.0110           0
      7656 MEMB     58       POPS     H6X      HAL2     0.900000E-01   1.00800           0
      7657 MEMB     58       POPS     H6Y      HAL2     0.900000E-01   1.00800           0
      7658 MEMB     58       POPS     C37      CTL2    -0.180000       12.0110           0
      7659 MEMB     58       POPS     H7X      HAL2     0.900000E-01   1.00800           0
      7660 MEMB     58       POPS     H7Y      HAL2     0.900000E-01   1.00800           0
      7661 MEMB     58       POPS     C38      CTL2    -0.180000       12.0110           0
      7662 MEMB     58       POPS     H8X      HAL2     0.900000E-01   1.00800           0
      7663 MEMB     58       POPS     H8Y      HAL2     0.900000E-01   1.00800           0
      7664 MEMB     58       POPS     C39      CTL2    -0.180000       12.0110           0
      7665 MEMB     58       POPS     H9X      HAL2     0.900000E-01   1.00800           0
      7666 MEMB     58       POPS     H9Y      HAL2     0.900000E-01   1.00800           0
      7667 MEMB     58       POPS     C310     CTL2    -0.180000       12.0110           0
      7668 MEMB     58       POPS     H10X     HAL2     0.900000E-01   1.00800           0
      7669 MEMB     58       POPS     H10Y     HAL2     0.900000E-01   1.00800           0
      7670 MEMB     58       POPS     C311     CTL2    -0.180000       12.0110           0
      7671 MEMB     58       POPS     H11X     HAL2     0.900000E-01   1.00800           0
      7672 MEMB     58       POPS     H11Y     HAL2     0.900000E-01   1.00800           0
      7673 MEMB     58       POPS     C312     CTL2    -0.180000       12.0110           0
      7674 MEMB     58       POPS     H12X     HAL2     0.900000E-01   1.00800           0
      7675 MEMB     58       POPS     H12Y     HAL2     0.900000E-01   1.00800           0
      7676 MEMB     58       POPS     C313     CTL2    -0.180000       12.0110           0
      7677 MEMB     58       POPS     H13X     HAL2     0.900000E-01   1.00800           0
      7678 MEMB     58       POPS     H13Y     HAL2     0.900000E-01   1.00800           0
      7679 MEMB     58       POPS     C314     CTL2    -0.180000       12.0110           0
      7680 MEMB     58       POPS     H14X     HAL2     0.900000E-01   1.00800           0
      7681 MEMB     58       POPS     H14Y     HAL2     0.900000E-01   1.00800           0
      7682 MEMB     58       POPS     C315     CTL2    -0.180000       12.0110           0
      7683 MEMB     58       POPS     H15X     HAL2     0.900000E-01   1.00800           0
      7684 MEMB     58       POPS     H15Y     HAL2     0.900000E-01   1.00800           0
      7685 MEMB     58       POPS     C316     CTL3    -0.270000       12.0110           0
      7686 MEMB     58       POPS     H16X     HAL3     0.900000E-01   1.00800           0
      7687 MEMB     58       POPS     H16Y     HAL3     0.900000E-01   1.00800           0
      7688 MEMB     58       POPS     H16Z     HAL3     0.900000E-01   1.00800           0
      7689 MEMB     59       POPC     N        NTL     -0.600000       14.0070           0
      7690 MEMB     59       POPC     C12      CTL2    -0.100000       12.0110           0
      7691 MEMB     59       POPC     H12A     HL       0.250000       1.00800           0
      7692 MEMB     59       POPC     H12B     HL       0.250000       1.00800           0
      7693 MEMB     59       POPC     C13      CTL5    -0.350000       12.0110           0
      7694 MEMB     59       POPC     H13A     HL       0.250000       1.00800           0
      7695 MEMB     59       POPC     H13B     HL       0.250000       1.00800           0
      7696 MEMB     59       POPC     H13C     HL       0.250000       1.00800           0
      7697 MEMB     59       POPC     C14      CTL5    -0.350000       12.0110           0
      7698 MEMB     59       POPC     H14A     HL       0.250000       1.00800           0
      7699 MEMB     59       POPC     H14B     HL       0.250000       1.00800           0
      7700 MEMB     59       POPC     H14C     HL       0.250000       1.00800           0
      7701 MEMB     59       POPC     C15      CTL5    -0.350000       12.0110           0
      7702 MEMB     59       POPC     H15A     HL       0.250000       1.00800           0
      7703 MEMB     59       POPC     H15B     HL       0.250000       1.00800           0
      7704 MEMB     59       POPC     H15C     HL       0.250000       1.00800           0
      7705 MEMB     59       POPC     C11      CTL2    -0.800000E-01   12.0110           0
      7706 MEMB     59       POPC     H11A     HAL2     0.900000E-01   1.00800           0
      7707 MEMB     59       POPC     H11B     HAL2     0.900000E-01   1.00800           0
      7708 MEMB     59       POPC     P        PL        1.50000       30.9740           0
      7709 MEMB     59       POPC     O13      O2L     -0.780000       15.9994           0
      7710 MEMB     59       POPC     O14      O2L     -0.780000       15.9994           0
      7711 MEMB     59       POPC     O12      OSLP    -0.570000       15.9994           0
      7712 MEMB     59       POPC     O11      OSLP    -0.570000       15.9994           0
      7713 MEMB     59       POPC     C1       CTL2    -0.800000E-01   12.0110           0
      7714 MEMB     59       POPC     HA       HAL2     0.900000E-01   1.00800           0
      7715 MEMB     59       POPC     HB       HAL2     0.900000E-01   1.00800           0
      7716 MEMB     59       POPC     C2       CTL1     0.170000       12.0110           0
      7717 MEMB     59       POPC     HS       HAL1     0.900000E-01   1.00800           0
      7718 MEMB     59       POPC     O21      OSL     -0.490000       15.9994           0
      7719 MEMB     59       POPC     C21      CL       0.900000       12.0110           0
      7720 MEMB     59       POPC     O22      OBL     -0.630000       15.9994           0
      7721 MEMB     59       POPC     C22      CTL2    -0.220000       12.0110           0
      7722 MEMB     59       POPC     H2R      HAL2     0.900000E-01   1.00800           0
      7723 MEMB     59       POPC     H2S      HAL2     0.900000E-01   1.00800           0
      7724 MEMB     59       POPC     C3       CTL2     0.800000E-01   12.0110           0
      7725 MEMB     59       POPC     HX       HAL2     0.900000E-01   1.00800           0
      7726 MEMB     59       POPC     HY       HAL2     0.900000E-01   1.00800           0
      7727 MEMB     59       POPC     O31      OSL     -0.490000       15.9994           0
      7728 MEMB     59       POPC     C31      CL       0.900000       12.0110           0
      7729 MEMB     59       POPC     O32      OBL     -0.630000       15.9994           0
      7730 MEMB     59       POPC     C32      CTL2    -0.220000       12.0110           0
      7731 MEMB     59       POPC     H2X      HAL2     0.900000E-01   1.00800           0
      7732 MEMB     59       POPC     H2Y      HAL2     0.900000E-01   1.00800           0
      7733 MEMB     59       POPC     C23      CTL2    -0.180000       12.0110           0
      7734 MEMB     59       POPC     H3R      HAL2     0.900000E-01   1.00800           0
      7735 MEMB     59       POPC     H3S      HAL2     0.900000E-01   1.00800           0
      7736 MEMB     59       POPC     C24      CTL2    -0.180000       12.0110           0
      7737 MEMB     59       POPC     H4R      HAL2     0.900000E-01   1.00800           0
      7738 MEMB     59       POPC     H4S      HAL2     0.900000E-01   1.00800           0
      7739 MEMB     59       POPC     C25      CTL2    -0.180000       12.0110           0
      7740 MEMB     59       POPC     H5R      HAL2     0.900000E-01   1.00800           0
      7741 MEMB     59       POPC     H5S      HAL2     0.900000E-01   1.00800           0
      7742 MEMB     59       POPC     C26      CTL2    -0.180000       12.0110           0
      7743 MEMB     59       POPC     H6R      HAL2     0.900000E-01   1.00800           0
      7744 MEMB     59       POPC     H6S      HAL2     0.900000E-01   1.00800           0
      7745 MEMB     59       POPC     C27      CTL2    -0.180000       12.0110           0
      7746 MEMB     59       POPC     H7R      HAL2     0.900000E-01   1.00800           0
      7747 MEMB     59       POPC     H7S      HAL2     0.900000E-01   1.00800           0
      7748 MEMB     59       POPC     C28      CTL2    -0.180000       12.0110           0
      7749 MEMB     59       POPC     H8R      HAL2     0.900000E-01   1.00800           0
      7750 MEMB     59       POPC     H8S      HAL2     0.900000E-01   1.00800           0
      7751 MEMB     59       POPC     C29      CEL1    -0.150000       12.0110           0
      7752 MEMB     59       POPC     H91      HEL1     0.150000       1.00800           0
      7753 MEMB     59       POPC     C210     CEL1    -0.150000       12.0110           0
      7754 MEMB     59       POPC     H101     HEL1     0.150000       1.00800           0
      7755 MEMB     59       POPC     C211     CTL2    -0.180000       12.0110           0
      7756 MEMB     59       POPC     H11R     HAL2     0.900000E-01   1.00800           0
      7757 MEMB     59       POPC     H11S     HAL2     0.900000E-01   1.00800           0
      7758 MEMB     59       POPC     C212     CTL2    -0.180000       12.0110           0
      7759 MEMB     59       POPC     H12R     HAL2     0.900000E-01   1.00800           0
      7760 MEMB     59       POPC     H12S     HAL2     0.900000E-01   1.00800           0
      7761 MEMB     59       POPC     C213     CTL2    -0.180000       12.0110           0
      7762 MEMB     59       POPC     H13R     HAL2     0.900000E-01   1.00800           0
      7763 MEMB     59       POPC     H13S     HAL2     0.900000E-01   1.00800           0
      7764 MEMB     59       POPC     C214     CTL2    -0.180000       12.0110           0
      7765 MEMB     59       POPC     H14R     HAL2     0.900000E-01   1.00800           0
      7766 MEMB     59       POPC     H14S     HAL2     0.900000E-01   1.00800           0
      7767 MEMB     59       POPC     C215     CTL2    -0.180000       12.0110           0
      7768 MEMB     59       POPC     H15R     HAL2     0.900000E-01   1.00800           0
      7769 MEMB     59       POPC     H15S     HAL2     0.900000E-01   1.00800           0
      7770 MEMB     59       POPC     C216     CTL2    -0.180000       12.0110           0
      7771 MEMB     59       POPC     H16R     HAL2     0.900000E-01   1.00800           0
      7772 MEMB     59       POPC     H16S     HAL2     0.900000E-01   1.00800           0
      7773 MEMB     59       POPC     C217     CTL2    -0.180000       12.0110           0
      7774 MEMB     59       POPC     H17R     HAL2     0.900000E-01   1.00800           0
      7775 MEMB     59       POPC     H17S     HAL2     0.900000E-01   1.00800           0
      7776 MEMB     59       POPC     C218     CTL3    -0.270000       12.0110           0
      7777 MEMB     59       POPC     H18R     HAL3     0.900000E-01   1.00800           0
      7778 MEMB     59       POPC     H18S     HAL3     0.900000E-01   1.00800           0
      7779 MEMB     59       POPC     H18T     HAL3     0.900000E-01   1.00800           0
      7780 MEMB     59       POPC     C33      CTL2    -0.180000       12.0110           0
      7781 MEMB     59       POPC     H3X      HAL2     0.900000E-01   1.00800           0
      7782 MEMB     59       POPC     H3Y      HAL2     0.900000E-01   1.00800           0
      7783 MEMB     59       POPC     C34      CTL2    -0.180000       12.0110           0
      7784 MEMB     59       POPC     H4X      HAL2     0.900000E-01   1.00800           0
      7785 MEMB     59       POPC     H4Y      HAL2     0.900000E-01   1.00800           0
      7786 MEMB     59       POPC     C35      CTL2    -0.180000       12.0110           0
      7787 MEMB     59       POPC     H5X      HAL2     0.900000E-01   1.00800           0
      7788 MEMB     59       POPC     H5Y      HAL2     0.900000E-01   1.00800           0
      7789 MEMB     59       POPC     C36      CTL2    -0.180000       12.0110           0
      7790 MEMB     59       POPC     H6X      HAL2     0.900000E-01   1.00800           0
      7791 MEMB     59       POPC     H6Y      HAL2     0.900000E-01   1.00800           0
      7792 MEMB     59       POPC     C37      CTL2    -0.180000       12.0110           0
      7793 MEMB     59       POPC     H7X      HAL2     0.900000E-01   1.00800           0
      7794 MEMB     59       POPC     H7Y      HAL2     0.900000E-01   1.00800           0
      7795 MEMB     59       POPC     C38      CTL2    -0.180000       12.0110           0
      7796 MEMB     59       POPC     H8X      HAL2     0.900000E-01   1.00800           0
      7797 MEMB     59       POPC     H8Y      HAL2     0.900000E-01   1.00800           0
      7798 MEMB     59       POPC     C39      CTL2    -0.180000       12.0110           0
      7799 MEMB     59       POPC     H9X      HAL2     0.900000E-01   1.00800           0
      7800 MEMB     59       POPC     H9Y      HAL2     0.900000E-01   1.00800           0
      7801 MEMB     59       POPC     C310     CTL2    -0.180000       12.0110           0
      7802 MEMB     59       POPC     H10X     HAL2     0.900000E-01   1.00800           0
      7803 MEMB     59       POPC     H10Y     HAL2     0.900000E-01   1.00800           0
      7804 MEMB     59       POPC     C311     CTL2    -0.180000       12.0110           0
      7805 MEMB     59       POPC     H11X     HAL2     0.900000E-01   1.00800           0
      7806 MEMB     59       POPC     H11Y     HAL2     0.900000E-01   1.00800           0
      7807 MEMB     59       POPC     C312     CTL2    -0.180000       12.0110           0
      7808 MEMB     59       POPC     H12X     HAL2     0.900000E-01   1.00800           0
      7809 MEMB     59       POPC     H12Y     HAL2     0.900000E-01   1.00800           0
      7810 MEMB     59       POPC     C313     CTL2    -0.180000       12.0110           0
      7811 MEMB     59       POPC     H13X     HAL2     0.900000E-01   1.00800           0
      7812 MEMB     59       POPC     H13Y     HAL2     0.900000E-01   1.00800           0
      7813 MEMB     59       POPC     C314     CTL2    -0.180000       12.0110           0
      7814 MEMB     59       POPC     H14X     HAL2     0.900000E-01   1.00800           0
      7815 MEMB     59       POPC     H14Y     HAL2     0.900000E-01   1.00800           0
      7816 MEMB     59       POPC     C315     CTL2    -0.180000       12.0110           0
      7817 MEMB     59       POPC     H15X     HAL2     0.900000E-01   1.00800           0
      7818 MEMB     59       POPC     H15Y     HAL2     0.900000E-01   1.00800           0
      7819 MEMB     59       POPC     C316     CTL3    -0.270000       12.0110           0
      7820 MEMB     59       POPC     H16X     HAL3     0.900000E-01   1.00800           0
      7821 MEMB     59       POPC     H16Y     HAL3     0.900000E-01   1.00800           0
      7822 MEMB     59       POPC     H16Z     HAL3     0.900000E-01   1.00800           0
      7823 MEMB     60       POPC     N        NTL     -0.600000       14.0070           0
      7824 MEMB     60       POPC     C12      CTL2    -0.100000       12.0110           0
      7825 MEMB     60       POPC     H12A     HL       0.250000       1.00800           0
      7826 MEMB     60       POPC     H12B     HL       0.250000       1.00800           0
      7827 MEMB     60       POPC     C13      CTL5    -0.350000       12.0110           0
      7828 MEMB     60       POPC     H13A     HL       0.250000       1.00800           0
      7829 MEMB     60       POPC     H13B     HL       0.250000       1.00800           0
      7830 MEMB     60       POPC     H13C     HL       0.250000       1.00800           0
      7831 MEMB     60       POPC     C14      CTL5    -0.350000       12.0110           0
      7832 MEMB     60       POPC     H14A     HL       0.250000       1.00800           0
      7833 MEMB     60       POPC     H14B     HL       0.250000       1.00800           0
      7834 MEMB     60       POPC     H14C     HL       0.250000       1.00800           0
      7835 MEMB     60       POPC     C15      CTL5    -0.350000       12.0110           0
      7836 MEMB     60       POPC     H15A     HL       0.250000       1.00800           0
      7837 MEMB     60       POPC     H15B     HL       0.250000       1.00800           0
      7838 MEMB     60       POPC     H15C     HL       0.250000       1.00800           0
      7839 MEMB     60       POPC     C11      CTL2    -0.800000E-01   12.0110           0
      7840 MEMB     60       POPC     H11A     HAL2     0.900000E-01   1.00800           0
      7841 MEMB     60       POPC     H11B     HAL2     0.900000E-01   1.00800           0
      7842 MEMB     60       POPC     P        PL        1.50000       30.9740           0
      7843 MEMB     60       POPC     O13      O2L     -0.780000       15.9994           0
      7844 MEMB     60       POPC     O14      O2L     -0.780000       15.9994           0
      7845 MEMB     60       POPC     O12      OSLP    -0.570000       15.9994           0
      7846 MEMB     60       POPC     O11      OSLP    -0.570000       15.9994           0
      7847 MEMB     60       POPC     C1       CTL2    -0.800000E-01   12.0110           0
      7848 MEMB     60       POPC     HA       HAL2     0.900000E-01   1.00800           0
      7849 MEMB     60       POPC     HB       HAL2     0.900000E-01   1.00800           0
      7850 MEMB     60       POPC     C2       CTL1     0.170000       12.0110           0
      7851 MEMB     60       POPC     HS       HAL1     0.900000E-01   1.00800           0
      7852 MEMB     60       POPC     O21      OSL     -0.490000       15.9994           0
      7853 MEMB     60       POPC     C21      CL       0.900000       12.0110           0
      7854 MEMB     60       POPC     O22      OBL     -0.630000       15.9994           0
      7855 MEMB     60       POPC     C22      CTL2    -0.220000       12.0110           0
      7856 MEMB     60       POPC     H2R      HAL2     0.900000E-01   1.00800           0
      7857 MEMB     60       POPC     H2S      HAL2     0.900000E-01   1.00800           0
      7858 MEMB     60       POPC     C3       CTL2     0.800000E-01   12.0110           0
      7859 MEMB     60       POPC     HX       HAL2     0.900000E-01   1.00800           0
      7860 MEMB     60       POPC     HY       HAL2     0.900000E-01   1.00800           0
      7861 MEMB     60       POPC     O31      OSL     -0.490000       15.9994           0
      7862 MEMB     60       POPC     C31      CL       0.900000       12.0110           0
      7863 MEMB     60       POPC     O32      OBL     -0.630000       15.9994           0
      7864 MEMB     60       POPC     C32      CTL2    -0.220000       12.0110           0
      7865 MEMB     60       POPC     H2X      HAL2     0.900000E-01   1.00800           0
      7866 MEMB     60       POPC     H2Y      HAL2     0.900000E-01   1.00800           0
      7867 MEMB     60       POPC     C23      CTL2    -0.180000       12.0110           0
      7868 MEMB     60       POPC     H3R      HAL2     0.900000E-01   1.00800           0
      7869 MEMB     60       POPC     H3S      HAL2     0.900000E-01   1.00800           0
      7870 MEMB     60       POPC     C24      CTL2    -0.180000       12.0110           0
      7871 MEMB     60       POPC     H4R      HAL2     0.900000E-01   1.00800           0
      7872 MEMB     60       POPC     H4S      HAL2     0.900000E-01   1.00800           0
      7873 MEMB     60       POPC     C25      CTL2    -0.180000       12.0110           0
      7874 MEMB     60       POPC     H5R      HAL2     0.900000E-01   1.00800           0
      7875 MEMB     60       POPC     H5S      HAL2     0.900000E-01   1.00800           0
      7876 MEMB     60       POPC     C26      CTL2    -0.180000       12.0110           0
      7877 MEMB     60       POPC     H6R      HAL2     0.900000E-01   1.00800           0
      7878 MEMB     60       POPC     H6S      HAL2     0.900000E-01   1.00800           0
      7879 MEMB     60       POPC     C27      CTL2    -0.180000       12.0110           0
      7880 MEMB     60       POPC     H7R      HAL2     0.900000E-01   1.00800           0
      7881 MEMB     60       POPC     H7S      HAL2     0.900000E-01   1.00800           0
      7882 MEMB     60       POPC     C28      CTL2    -0.180000       12.0110           0
      7883 MEMB     60       POPC     H8R      HAL2     0.900000E-01   1.00800           0
      7884 MEMB     60       POPC     H8S      HAL2     0.900000E-01   1.00800           0
      7885 MEMB     60       POPC     C29      CEL1    -0.150000       12.0110           0
      7886 MEMB     60       POPC     H91      HEL1     0.150000       1.00800           0
      7887 MEMB     60       POPC     C210     CEL1    -0.150000       12.0110           0
      7888 MEMB     60       POPC     H101     HEL1     0.150000       1.00800           0
      7889 MEMB     60       POPC     C211     CTL2    -0.180000       12.0110           0
      7890 MEMB     60       POPC     H11R     HAL2     0.900000E-01   1.00800           0
      7891 MEMB     60       POPC     H11S     HAL2     0.900000E-01   1.00800           0
      7892 MEMB     60       POPC     C212     CTL2    -0.180000       12.0110           0
      7893 MEMB     60       POPC     H12R     HAL2     0.900000E-01   1.00800           0
      7894 MEMB     60       POPC     H12S     HAL2     0.900000E-01   1.00800           0
      7895 MEMB     60       POPC     C213     CTL2    -0.180000       12.0110           0
      7896 MEMB     60       POPC     H13R     HAL2     0.900000E-01   1.00800           0
      7897 MEMB     60       POPC     H13S     HAL2     0.900000E-01   1.00800           0
      7898 MEMB     60       POPC     C214     CTL2    -0.180000       12.0110           0
      7899 MEMB     60       POPC     H14R     HAL2     0.900000E-01   1.00800           0
      7900 MEMB     60       POPC     H14S     HAL2     0.900000E-01   1.00800           0
      7901 MEMB     60       POPC     C215     CTL2    -0.180000       12.0110           0
      7902 MEMB     60       POPC     H15R     HAL2     0.900000E-01   1.00800           0
      7903 MEMB     60       POPC     H15S     HAL2     0.900000E-01   1.00800           0
      7904 MEMB     60       POPC     C216     CTL2    -0.180000       12.0110           0
      7905 MEMB     60       POPC     H16R     HAL2     0.900000E-01   1.00800           0
      7906 MEMB     60       POPC     H16S     HAL2     0.900000E-01   1.00800           0
      7907 MEMB     60       POPC     C217     CTL2    -0.180000       12.0110           0
      7908 MEMB     60       POPC     H17R     HAL2     0.900000E-01   1.00800           0
      7909 MEMB     60       POPC     H17S     HAL2     0.900000E-01   1.00800           0
      7910 MEMB     60       POPC     C218     CTL3    -0.270000       12.0110           0
      7911 MEMB     60       POPC     H18R     HAL3     0.900000E-01   1.00800           0
      7912 MEMB     60       POPC     H18S     HAL3     0.900000E-01   1.00800           0
      7913 MEMB     60       POPC     H18T     HAL3     0.900000E-01   1.00800           0
      7914 MEMB     60       POPC     C33      CTL2    -0.180000       12.0110           0
      7915 MEMB     60       POPC     H3X      HAL2     0.900000E-01   1.00800           0
      7916 MEMB     60       POPC     H3Y      HAL2     0.900000E-01   1.00800           0
      7917 MEMB     60       POPC     C34      CTL2    -0.180000       12.0110           0
      7918 MEMB     60       POPC     H4X      HAL2     0.900000E-01   1.00800           0
      7919 MEMB     60       POPC     H4Y      HAL2     0.900000E-01   1.00800           0
      7920 MEMB     60       POPC     C35      CTL2    -0.180000       12.0110           0
      7921 MEMB     60       POPC     H5X      HAL2     0.900000E-01   1.00800           0
      7922 MEMB     60       POPC     H5Y      HAL2     0.900000E-01   1.00800           0
      7923 MEMB     60       POPC     C36      CTL2    -0.180000       12.0110           0
      7924 MEMB     60       POPC     H6X      HAL2     0.900000E-01   1.00800           0
      7925 MEMB     60       POPC     H6Y      HAL2     0.900000E-01   1.00800           0
      7926 MEMB     60       POPC     C37      CTL2    -0.180000       12.0110           0
      7927 MEMB     60       POPC     H7X      HAL2     0.900000E-01   1.00800           0
      7928 MEMB     60       POPC     H7Y      HAL2     0.900000E-01   1.00800           0
      7929 MEMB     60       POPC     C38      CTL2    -0.180000       12.0110           0
      7930 MEMB     60       POPC     H8X      HAL2     0.900000E-01   1.00800           0
      7931 MEMB     60       POPC     H8Y      HAL2     0.900000E-01   1.00800           0
      7932 MEMB     60       POPC     C39      CTL2    -0.180000       12.0110           0
      7933 MEMB     60       POPC     H9X      HAL2     0.900000E-01   1.00800           0
      7934 MEMB     60       POPC     H9Y      HAL2     0.900000E-01   1.00800           0
      7935 MEMB     60       POPC     C310     CTL2    -0.180000       12.0110           0
      7936 MEMB     60       POPC     H10X     HAL2     0.900000E-01   1.00800           0
      7937 MEMB     60       POPC     H10Y     HAL2     0.900000E-01   1.00800           0
      7938 MEMB     60       POPC     C311     CTL2    -0.180000       12.0110           0
      7939 MEMB     60       POPC     H11X     HAL2     0.900000E-01   1.00800           0
      7940 MEMB     60       POPC     H11Y     HAL2     0.900000E-01   1.00800           0
      7941 MEMB     60       POPC     C312     CTL2    -0.180000       12.0110           0
      7942 MEMB     60       POPC     H12X     HAL2     0.900000E-01   1.00800           0
      7943 MEMB     60       POPC     H12Y     HAL2     0.900000E-01   1.00800           0
      7944 MEMB     60       POPC     C313     CTL2    -0.180000       12.0110           0
      7945 MEMB     60       POPC     H13X     HAL2     0.900000E-01   1.00800           0
      7946 MEMB     60       POPC     H13Y     HAL2     0.900000E-01   1.00800           0
      7947 MEMB     60       POPC     C314     CTL2    -0.180000       12.0110           0
      7948 MEMB     60       POPC     H14X     HAL2     0.900000E-01   1.00800           0
      7949 MEMB     60       POPC     H14Y     HAL2     0.900000E-01   1.00800           0
      7950 MEMB     60       POPC     C315     CTL2    -0.180000       12.0110           0
      7951 MEMB     60       POPC     H15X     HAL2     0.900000E-01   1.00800           0
      7952 MEMB     60       POPC     H15Y     HAL2     0.900000E-01   1.00800           0
      7953 MEMB     60       POPC     C316     CTL3    -0.270000       12.0110           0
      7954 MEMB     60       POPC     H16X     HAL3     0.900000E-01   1.00800           0
      7955 MEMB     60       POPC     H16Y     HAL3     0.900000E-01   1.00800           0
      7956 MEMB     60       POPC     H16Z     HAL3     0.900000E-01   1.00800           0
      7957 MEMB     61       POPC     N        NTL     -0.600000       14.0070           0
      7958 MEMB     61       POPC     C12      CTL2    -0.100000       12.0110           0
      7959 MEMB     61       POPC     H12A     HL       0.250000       1.00800           0
      7960 MEMB     61       POPC     H12B     HL       0.250000       1.00800           0
      7961 MEMB     61       POPC     C13      CTL5    -0.350000       12.0110           0
      7962 MEMB     61       POPC     H13A     HL       0.250000       1.00800           0
      7963 MEMB     61       POPC     H13B     HL       0.250000       1.00800           0
      7964 MEMB     61       POPC     H13C     HL       0.250000       1.00800           0
      7965 MEMB     61       POPC     C14      CTL5    -0.350000       12.0110           0
      7966 MEMB     61       POPC     H14A     HL       0.250000       1.00800           0
      7967 MEMB     61       POPC     H14B     HL       0.250000       1.00800           0
      7968 MEMB     61       POPC     H14C     HL       0.250000       1.00800           0
      7969 MEMB     61       POPC     C15      CTL5    -0.350000       12.0110           0
      7970 MEMB     61       POPC     H15A     HL       0.250000       1.00800           0
      7971 MEMB     61       POPC     H15B     HL       0.250000       1.00800           0
      7972 MEMB     61       POPC     H15C     HL       0.250000       1.00800           0
      7973 MEMB     61       POPC     C11      CTL2    -0.800000E-01   12.0110           0
      7974 MEMB     61       POPC     H11A     HAL2     0.900000E-01   1.00800           0
      7975 MEMB     61       POPC     H11B     HAL2     0.900000E-01   1.00800           0
      7976 MEMB     61       POPC     P        PL        1.50000       30.9740           0
      7977 MEMB     61       POPC     O13      O2L     -0.780000       15.9994           0
      7978 MEMB     61       POPC     O14      O2L     -0.780000       15.9994           0
      7979 MEMB     61       POPC     O12      OSLP    -0.570000       15.9994           0
      7980 MEMB     61       POPC     O11      OSLP    -0.570000       15.9994           0
      7981 MEMB     61       POPC     C1       CTL2    -0.800000E-01   12.0110           0
      7982 MEMB     61       POPC     HA       HAL2     0.900000E-01   1.00800           0
      7983 MEMB     61       POPC     HB       HAL2     0.900000E-01   1.00800           0
      7984 MEMB     61       POPC     C2       CTL1     0.170000       12.0110           0
      7985 MEMB     61       POPC     HS       HAL1     0.900000E-01   1.00800           0
      7986 MEMB     61       POPC     O21      OSL     -0.490000       15.9994           0
      7987 MEMB     61       POPC     C21      CL       0.900000       12.0110           0
      7988 MEMB     61       POPC     O22      OBL     -0.630000       15.9994           0
      7989 MEMB     61       POPC     C22      CTL2    -0.220000       12.0110           0
      7990 MEMB     61       POPC     H2R      HAL2     0.900000E-01   1.00800           0
      7991 MEMB     61       POPC     H2S      HAL2     0.900000E-01   1.00800           0
      7992 MEMB     61       POPC     C3       CTL2     0.800000E-01   12.0110           0
      7993 MEMB     61       POPC     HX       HAL2     0.900000E-01   1.00800           0
      7994 MEMB     61       POPC     HY       HAL2     0.900000E-01   1.00800           0
      7995 MEMB     61       POPC     O31      OSL     -0.490000       15.9994           0
      7996 MEMB     61       POPC     C31      CL       0.900000       12.0110           0
      7997 MEMB     61       POPC     O32      OBL     -0.630000       15.9994           0
      7998 MEMB     61       POPC     C32      CTL2    -0.220000       12.0110           0
      7999 MEMB     61       POPC     H2X      HAL2     0.900000E-01   1.00800           0
      8000 MEMB     61       POPC     H2Y      HAL2     0.900000E-01   1.00800           0
      8001 MEMB     61       POPC     C23      CTL2    -0.180000       12.0110           0
      8002 MEMB     61       POPC     H3R      HAL2     0.900000E-01   1.00800           0
      8003 MEMB     61       POPC     H3S      HAL2     0.900000E-01   1.00800           0
      8004 MEMB     61       POPC     C24      CTL2    -0.180000       12.0110           0
      8005 MEMB     61       POPC     H4R      HAL2     0.900000E-01   1.00800           0
      8006 MEMB     61       POPC     H4S      HAL2     0.900000E-01   1.00800           0
      8007 MEMB     61       POPC     C25      CTL2    -0.180000       12.0110           0
      8008 MEMB     61       POPC     H5R      HAL2     0.900000E-01   1.00800           0
      8009 MEMB     61       POPC     H5S      HAL2     0.900000E-01   1.00800           0
      8010 MEMB     61       POPC     C26      CTL2    -0.180000       12.0110           0
      8011 MEMB     61       POPC     H6R      HAL2     0.900000E-01   1.00800           0
      8012 MEMB     61       POPC     H6S      HAL2     0.900000E-01   1.00800           0
      8013 MEMB     61       POPC     C27      CTL2    -0.180000       12.0110           0
      8014 MEMB     61       POPC     H7R      HAL2     0.900000E-01   1.00800           0
      8015 MEMB     61       POPC     H7S      HAL2     0.900000E-01   1.00800           0
      8016 MEMB     61       POPC     C28      CTL2    -0.180000       12.0110           0
      8017 MEMB     61       POPC     H8R      HAL2     0.900000E-01   1.00800           0
      8018 MEMB     61       POPC     H8S      HAL2     0.900000E-01   1.00800           0
      8019 MEMB     61       POPC     C29      CEL1    -0.150000       12.0110           0
      8020 MEMB     61       POPC     H91      HEL1     0.150000       1.00800           0
      8021 MEMB     61       POPC     C210     CEL1    -0.150000       12.0110           0
      8022 MEMB     61       POPC     H101     HEL1     0.150000       1.00800           0
      8023 MEMB     61       POPC     C211     CTL2    -0.180000       12.0110           0
      8024 MEMB     61       POPC     H11R     HAL2     0.900000E-01   1.00800           0
      8025 MEMB     61       POPC     H11S     HAL2     0.900000E-01   1.00800           0
      8026 MEMB     61       POPC     C212     CTL2    -0.180000       12.0110           0
      8027 MEMB     61       POPC     H12R     HAL2     0.900000E-01   1.00800           0
      8028 MEMB     61       POPC     H12S     HAL2     0.900000E-01   1.00800           0
      8029 MEMB     61       POPC     C213     CTL2    -0.180000       12.0110           0
      8030 MEMB     61       POPC     H13R     HAL2     0.900000E-01   1.00800           0
      8031 MEMB     61       POPC     H13S     HAL2     0.900000E-01   1.00800           0
      8032 MEMB     61       POPC     C214     CTL2    -0.180000       12.0110           0
      8033 MEMB     61       POPC     H14R     HAL2     0.900000E-01   1.00800           0
      8034 MEMB     61       POPC     H14S     HAL2     0.900000E-01   1.00800           0
      8035 MEMB     61       POPC     C215     CTL2    -0.180000       12.0110           0
      8036 MEMB     61       POPC     H15R     HAL2     0.900000E-01   1.00800           0
      8037 MEMB     61       POPC     H15S     HAL2     0.900000E-01   1.00800           0
      8038 MEMB     61       POPC     C216     CTL2    -0.180000       12.0110           0
      8039 MEMB     61       POPC     H16R     HAL2     0.900000E-01   1.00800           0
      8040 MEMB     61       POPC     H16S     HAL2     0.900000E-01   1.00800           0
      8041 MEMB     61       POPC     C217     CTL2    -0.180000       12.0110           0
      8042 MEMB     61       POPC     H17R     HAL2     0.900000E-01   1.00800           0
      8043 MEMB     61       POPC     H17S     HAL2     0.900000E-01   1.00800           0
      8044 MEMB     61       POPC     C218     CTL3    -0.270000       12.0110           0
      8045 MEMB     61       POPC     H18R     HAL3     0.900000E-01   1.00800           0
      8046 MEMB     61       POPC     H18S     HAL3     0.900000E-01   1.00800           0
      8047 MEMB     61       POPC     H18T     HAL3     0.900000E-01   1.00800           0
      8048 MEMB     61       POPC     C33      CTL2    -0.180000       12.0110           0
      8049 MEMB     61       POPC     H3X      HAL2     0.900000E-01   1.00800           0
      8050 MEMB     61       POPC     H3Y      HAL2     0.900000E-01   1.00800           0
      8051 MEMB     61       POPC     C34      CTL2    -0.180000       12.0110           0
      8052 MEMB     61       POPC     H4X      HAL2     0.900000E-01   1.00800           0
      8053 MEMB     61       POPC     H4Y      HAL2     0.900000E-01   1.00800           0
      8054 MEMB     61       POPC     C35      CTL2    -0.180000       12.0110           0
      8055 MEMB     61       POPC     H5X      HAL2     0.900000E-01   1.00800           0
      8056 MEMB     61       POPC     H5Y      HAL2     0.900000E-01   1.00800           0
      8057 MEMB     61       POPC     C36      CTL2    -0.180000       12.0110           0
      8058 MEMB     61       POPC     H6X      HAL2     0.900000E-01   1.00800           0
      8059 MEMB     61       POPC     H6Y      HAL2     0.900000E-01   1.00800           0
      8060 MEMB     61       POPC     C37      CTL2    -0.180000       12.0110           0
      8061 MEMB     61       POPC     H7X      HAL2     0.900000E-01   1.00800           0
      8062 MEMB     61       POPC     H7Y      HAL2     0.900000E-01   1.00800           0
      8063 MEMB     61       POPC     C38      CTL2    -0.180000       12.0110           0
      8064 MEMB     61       POPC     H8X      HAL2     0.900000E-01   1.00800           0
      8065 MEMB     61       POPC     H8Y      HAL2     0.900000E-01   1.00800           0
      8066 MEMB     61       POPC     C39      CTL2    -0.180000       12.0110           0
      8067 MEMB     61       POPC     H9X      HAL2     0.900000E-01   1.00800           0
      8068 MEMB     61       POPC     H9Y      HAL2     0.900000E-01   1.00800           0
      8069 MEMB     61       POPC     C310     CTL2    -0.180000       12.0110           0
      8070 MEMB     61       POPC     H10X     HAL2     0.900000E-01   1.00800           0
      8071 MEMB     61       POPC     H10Y     HAL2     0.900000E-01   1.00800           0
      8072 MEMB     61       POPC     C311     CTL2    -0.180000       12.0110           0
      8073 MEMB     61       POPC     H11X     HAL2     0.900000E-01   1.00800           0
      8074 MEMB     61       POPC     H11Y     HAL2     0.900000E-01   1.00800           0
      8075 MEMB     61       POPC     C312     CTL2    -0.180000       12.0110           0
      8076 MEMB     61       POPC     H12X     HAL2     0.900000E-01   1.00800           0
      8077 MEMB     61       POPC     H12Y     HAL2     0.900000E-01   1.00800           0
      8078 MEMB     61       POPC     C313     CTL2    -0.180000       12.0110           0
      8079 MEMB     61       POPC     H13X     HAL2     0.900000E-01   1.00800           0
      8080 MEMB     61       POPC     H13Y     HAL2     0.900000E-01   1.00800           0
      8081 MEMB     61       POPC     C314     CTL2    -0.180000       12.0110           0
      8082 MEMB     61       POPC     H14X     HAL2     0.900000E-01   1.00800           0
      8083 MEMB     61       POPC     H14Y     HAL2     0.900000E-01   1.00800           0
      8084 MEMB     61       POPC     C315     CTL2    -0.180000       12.0110           0
      8085 MEMB     61       POPC     H15X     HAL2     0.900000E-01   1.00800           0
      8086 MEMB     61       POPC     H15Y     HAL2     0.900000E-01   1.00800           0
      8087 MEMB     61       POPC     C316     CTL3    -0.270000       12.0110           0
      8088 MEMB     61       POPC     H16X     HAL3     0.900000E-01   1.00800           0
      8089 MEMB     61       POPC     H16Y     HAL3     0.900000E-01   1.00800           0
      8090 MEMB     61       POPC     H16Z     HAL3     0.900000E-01   1.00800           0
      8091 MEMB     62       POPC     N        NTL     -0.600000       14.0070           0
      8092 MEMB     62       POPC     C12      CTL2    -0.100000       12.0110           0
      8093 MEMB     62       POPC     H12A     HL       0.250000       1.00800           0
      8094 MEMB     62       POPC     H12B     HL       0.250000       1.00800           0
      8095 MEMB     62       POPC     C13      CTL5    -0.350000       12.0110           0
      8096 MEMB     62       POPC     H13A     HL       0.250000       1.00800           0
      8097 MEMB     62       POPC     H13B     HL       0.250000       1.00800           0
      8098 MEMB     62       POPC     H13C     HL       0.250000       1.00800           0
      8099 MEMB     62       POPC     C14      CTL5    -0.350000       12.0110           0
      8100 MEMB     62       POPC     H14A     HL       0.250000       1.00800           0
      8101 MEMB     62       POPC     H14B     HL       0.250000       1.00800           0
      8102 MEMB     62       POPC     H14C     HL       0.250000       1.00800           0
      8103 MEMB     62       POPC     C15      CTL5    -0.350000       12.0110           0
      8104 MEMB     62       POPC     H15A     HL       0.250000       1.00800           0
      8105 MEMB     62       POPC     H15B     HL       0.250000       1.00800           0
      8106 MEMB     62       POPC     H15C     HL       0.250000       1.00800           0
      8107 MEMB     62       POPC     C11      CTL2    -0.800000E-01   12.0110           0
      8108 MEMB     62       POPC     H11A     HAL2     0.900000E-01   1.00800           0
      8109 MEMB     62       POPC     H11B     HAL2     0.900000E-01   1.00800           0
      8110 MEMB     62       POPC     P        PL        1.50000       30.9740           0
      8111 MEMB     62       POPC     O13      O2L     -0.780000       15.9994           0
      8112 MEMB     62       POPC     O14      O2L     -0.780000       15.9994           0
      8113 MEMB     62       POPC     O12      OSLP    -0.570000       15.9994           0
      8114 MEMB     62       POPC     O11      OSLP    -0.570000       15.9994           0
      8115 MEMB     62       POPC     C1       CTL2    -0.800000E-01   12.0110           0
      8116 MEMB     62       POPC     HA       HAL2     0.900000E-01   1.00800           0
      8117 MEMB     62       POPC     HB       HAL2     0.900000E-01   1.00800           0
      8118 MEMB     62       POPC     C2       CTL1     0.170000       12.0110           0
      8119 MEMB     62       POPC     HS       HAL1     0.900000E-01   1.00800           0
      8120 MEMB     62       POPC     O21      OSL     -0.490000       15.9994           0
      8121 MEMB     62       POPC     C21      CL       0.900000       12.0110           0
      8122 MEMB     62       POPC     O22      OBL     -0.630000       15.9994           0
      8123 MEMB     62       POPC     C22      CTL2    -0.220000       12.0110           0
      8124 MEMB     62       POPC     H2R      HAL2     0.900000E-01   1.00800           0
      8125 MEMB     62       POPC     H2S      HAL2     0.900000E-01   1.00800           0
      8126 MEMB     62       POPC     C3       CTL2     0.800000E-01   12.0110           0
      8127 MEMB     62       POPC     HX       HAL2     0.900000E-01   1.00800           0
      8128 MEMB     62       POPC     HY       HAL2     0.900000E-01   1.00800           0
      8129 MEMB     62       POPC     O31      OSL     -0.490000       15.9994           0
      8130 MEMB     62       POPC     C31      CL       0.900000       12.0110           0
      8131 MEMB     62       POPC     O32      OBL     -0.630000       15.9994           0
      8132 MEMB     62       POPC     C32      CTL2    -0.220000       12.0110           0
      8133 MEMB     62       POPC     H2X      HAL2     0.900000E-01   1.00800           0
      8134 MEMB     62       POPC     H2Y      HAL2     0.900000E-01   1.00800           0
      8135 MEMB     62       POPC     C23      CTL2    -0.180000       12.0110           0
      8136 MEMB     62       POPC     H3R      HAL2     0.900000E-01   1.00800           0
      8137 MEMB     62       POPC     H3S      HAL2     0.900000E-01   1.00800           0
      8138 MEMB     62       POPC     C24      CTL2    -0.180000       12.0110           0
      8139 MEMB     62       POPC     H4R      HAL2     0.900000E-01   1.00800           0
      8140 MEMB     62       POPC     H4S      HAL2     0.900000E-01   1.00800           0
      8141 MEMB     62       POPC     C25      CTL2    -0.180000       12.0110           0
      8142 MEMB     62       POPC     H5R      HAL2     0.900000E-01   1.00800           0
      8143 MEMB     62       POPC     H5S      HAL2     0.900000E-01   1.00800           0
      8144 MEMB     62       POPC     C26      CTL2    -0.180000       12.0110           0
      8145 MEMB     62       POPC     H6R      HAL2     0.900000E-01   1.00800           0
      8146 MEMB     62       POPC     H6S      HAL2     0.900000E-01   1.00800           0
      8147 MEMB     62       POPC     C27      CTL2    -0.180000       12.0110           0
      8148 MEMB     62       POPC     H7R      HAL2     0.900000E-01   1.00800           0
      8149 MEMB     62       POPC     H7S      HAL2     0.900000E-01   1.00800           0
      8150 MEMB     62       POPC     C28      CTL2    -0.180000       12.0110           0
      8151 MEMB     62       POPC     H8R      HAL2     0.900000E-01   1.00800           0
      8152 MEMB     62       POPC     H8S      HAL2     0.900000E-01   1.00800           0
      8153 MEMB     62       POPC     C29      CEL1    -0.150000       12.0110           0
      8154 MEMB     62       POPC     H91      HEL1     0.150000       1.00800           0
      8155 MEMB     62       POPC     C210     CEL1    -0.150000       12.0110           0
      8156 MEMB     62       POPC     H101     HEL1     0.150000       1.00800           0
      8157 MEMB     62       POPC     C211     CTL2    -0.180000       12.0110           0
      8158 MEMB     62       POPC     H11R     HAL2     0.900000E-01   1.00800           0
      8159 MEMB     62       POPC     H11S     HAL2     0.900000E-01   1.00800           0
      8160 MEMB     62       POPC     C212     CTL2    -0.180000       12.0110           0
      8161 MEMB     62       POPC     H12R     HAL2     0.900000E-01   1.00800           0
      8162 MEMB     62       POPC     H12S     HAL2     0.900000E-01   1.00800           0
      8163 MEMB     62       POPC     C213     CTL2    -0.180000       12.0110           0
      8164 MEMB     62       POPC     H13R     HAL2     0.900000E-01   1.00800           0
      8165 MEMB     62       POPC     H13S     HAL2     0.900000E-01   1.00800           0
      8166 MEMB     62       POPC     C214     CTL2    -0.180000       12.0110           0
      8167 MEMB     62       POPC     H14R     HAL2     0.900000E-01   1.00800           0
      8168 MEMB     62       POPC     H14S     HAL2     0.900000E-01   1.00800           0
      8169 MEMB     62       POPC     C215     CTL2    -0.180000       12.0110           0
      8170 MEMB     62       POPC     H15R     HAL2     0.900000E-01   1.00800           0
      8171 MEMB     62       POPC     H15S     HAL2     0.900000E-01   1.00800           0
      8172 MEMB     62       POPC     C216     CTL2    -0.180000       12.0110           0
      8173 MEMB     62       POPC     H16R     HAL2     0.900000E-01   1.00800           0
      8174 MEMB     62       POPC     H16S     HAL2     0.900000E-01   1.00800           0
      8175 MEMB     62       POPC     C217     CTL2    -0.180000       12.0110           0
      8176 MEMB     62       POPC     H17R     HAL2     0.900000E-01   1.00800           0
      8177 MEMB     62       POPC     H17S     HAL2     0.900000E-01   1.00800           0
      8178 MEMB     62       POPC     C218     CTL3    -0.270000       12.0110           0
      8179 MEMB     62       POPC     H18R     HAL3     0.900000E-01   1.00800           0
      8180 MEMB     62       POPC     H18S     HAL3     0.900000E-01   1.00800           0
      8181 MEMB     62       POPC     H18T     HAL3     0.900000E-01   1.00800           0
      8182 MEMB     62       POPC     C33      CTL2    -0.180000       12.0110           0
      8183 MEMB     62       POPC     H3X      HAL2     0.900000E-01   1.00800           0
      8184 MEMB     62       POPC     H3Y      HAL2     0.900000E-01   1.00800           0
      8185 MEMB     62       POPC     C34      CTL2    -0.180000       12.0110           0
      8186 MEMB     62       POPC     H4X      HAL2     0.900000E-01   1.00800           0
      8187 MEMB     62       POPC     H4Y      HAL2     0.900000E-01   1.00800           0
      8188 MEMB     62       POPC     C35      CTL2    -0.180000       12.0110           0
      8189 MEMB     62       POPC     H5X      HAL2     0.900000E-01   1.00800           0
      8190 MEMB     62       POPC     H5Y      HAL2     0.900000E-01   1.00800           0
      8191 MEMB     62       POPC     C36      CTL2    -0.180000       12.0110           0
      8192 MEMB     62       POPC     H6X      HAL2     0.900000E-01   1.00800           0
      8193 MEMB     62       POPC     H6Y      HAL2     0.900000E-01   1.00800           0
      8194 MEMB     62       POPC     C37      CTL2    -0.180000       12.0110           0
      8195 MEMB     62       POPC     H7X      HAL2     0.900000E-01   1.00800           0
      8196 MEMB     62       POPC     H7Y      HAL2     0.900000E-01   1.00800           0
      8197 MEMB     62       POPC     C38      CTL2    -0.180000       12.0110           0
      8198 MEMB     62       POPC     H8X      HAL2     0.900000E-01   1.00800           0
      8199 MEMB     62       POPC     H8Y      HAL2     0.900000E-01   1.00800           0
      8200 MEMB     62       POPC     C39      CTL2    -0.180000       12.0110           0
      8201 MEMB     62       POPC     H9X      HAL2     0.900000E-01   1.00800           0
      8202 MEMB     62       POPC     H9Y      HAL2     0.900000E-01   1.00800           0
      8203 MEMB     62       POPC     C310     CTL2    -0.180000       12.0110           0
      8204 MEMB     62       POPC     H10X     HAL2     0.900000E-01   1.00800           0
      8205 MEMB     62       POPC     H10Y     HAL2     0.900000E-01   1.00800           0
      8206 MEMB     62       POPC     C311     CTL2    -0.180000       12.0110           0
      8207 MEMB     62       POPC     H11X     HAL2     0.900000E-01   1.00800           0
      8208 MEMB     62       POPC     H11Y     HAL2     0.900000E-01   1.00800           0
      8209 MEMB     62       POPC     C312     CTL2    -0.180000       12.0110           0
      8210 MEMB     62       POPC     H12X     HAL2     0.900000E-01   1.00800           0
      8211 MEMB     62       POPC     H12Y     HAL2     0.900000E-01   1.00800           0
      8212 MEMB     62       POPC     C313     CTL2    -0.180000       12.0110           0
      8213 MEMB     62       POPC     H13X     HAL2     0.900000E-01   1.00800           0
      8214 MEMB     62       POPC     H13Y     HAL2     0.900000E-01   1.00800           0
      8215 MEMB     62       POPC     C314     CTL2    -0.180000       12.0110           0
      8216 MEMB     62       POPC     H14X     HAL2     0.900000E-01   1.00800           0
      8217 MEMB     62       POPC     H14Y     HAL2     0.900000E-01   1.00800           0
      8218 MEMB     62       POPC     C315     CTL2    -0.180000       12.0110           0
      8219 MEMB     62       POPC     H15X     HAL2     0.900000E-01   1.00800           0
      8220 MEMB     62       POPC     H15Y     HAL2     0.900000E-01   1.00800           0
      8221 MEMB     62       POPC     C316     CTL3    -0.270000       12.0110           0
      8222 MEMB     62       POPC     H16X     HAL3     0.900000E-01   1.00800           0
      8223 MEMB     62       POPC     H16Y     HAL3     0.900000E-01   1.00800           0
      8224 MEMB     62       POPC     H16Z     HAL3     0.900000E-01   1.00800           0
      8225 MEMB     63       POPC     N        NTL     -0.600000       14.0070           0
      8226 MEMB     63       POPC     C12      CTL2    -0.100000       12.0110           0
      8227 MEMB     63       POPC     H12A     HL       0.250000       1.00800           0
      8228 MEMB     63       POPC     H12B     HL       0.250000       1.00800           0
      8229 MEMB     63       POPC     C13      CTL5    -0.350000       12.0110           0
      8230 MEMB     63       POPC     H13A     HL       0.250000       1.00800           0
      8231 MEMB     63       POPC     H13B     HL       0.250000       1.00800           0
      8232 MEMB     63       POPC     H13C     HL       0.250000       1.00800           0
      8233 MEMB     63       POPC     C14      CTL5    -0.350000       12.0110           0
      8234 MEMB     63       POPC     H14A     HL       0.250000       1.00800           0
      8235 MEMB     63       POPC     H14B     HL       0.250000       1.00800           0
      8236 MEMB     63       POPC     H14C     HL       0.250000       1.00800           0
      8237 MEMB     63       POPC     C15      CTL5    -0.350000       12.0110           0
      8238 MEMB     63       POPC     H15A     HL       0.250000       1.00800           0
      8239 MEMB     63       POPC     H15B     HL       0.250000       1.00800           0
      8240 MEMB     63       POPC     H15C     HL       0.250000       1.00800           0
      8241 MEMB     63       POPC     C11      CTL2    -0.800000E-01   12.0110           0
      8242 MEMB     63       POPC     H11A     HAL2     0.900000E-01   1.00800           0
      8243 MEMB     63       POPC     H11B     HAL2     0.900000E-01   1.00800           0
      8244 MEMB     63       POPC     P        PL        1.50000       30.9740           0
      8245 MEMB     63       POPC     O13      O2L     -0.780000       15.9994           0
      8246 MEMB     63       POPC     O14      O2L     -0.780000       15.9994           0
      8247 MEMB     63       POPC     O12      OSLP    -0.570000       15.9994           0
      8248 MEMB     63       POPC     O11      OSLP    -0.570000       15.9994           0
      8249 MEMB     63       POPC     C1       CTL2    -0.800000E-01   12.0110           0
      8250 MEMB     63       POPC     HA       HAL2     0.900000E-01   1.00800           0
      8251 MEMB     63       POPC     HB       HAL2     0.900000E-01   1.00800           0
      8252 MEMB     63       POPC     C2       CTL1     0.170000       12.0110           0
      8253 MEMB     63       POPC     HS       HAL1     0.900000E-01   1.00800           0
      8254 MEMB     63       POPC     O21      OSL     -0.490000       15.9994           0
      8255 MEMB     63       POPC     C21      CL       0.900000       12.0110           0
      8256 MEMB     63       POPC     O22      OBL     -0.630000       15.9994           0
      8257 MEMB     63       POPC     C22      CTL2    -0.220000       12.0110           0
      8258 MEMB     63       POPC     H2R      HAL2     0.900000E-01   1.00800           0
      8259 MEMB     63       POPC     H2S      HAL2     0.900000E-01   1.00800           0
      8260 MEMB     63       POPC     C3       CTL2     0.800000E-01   12.0110           0
      8261 MEMB     63       POPC     HX       HAL2     0.900000E-01   1.00800           0
      8262 MEMB     63       POPC     HY       HAL2     0.900000E-01   1.00800           0
      8263 MEMB     63       POPC     O31      OSL     -0.490000       15.9994           0
      8264 MEMB     63       POPC     C31      CL       0.900000       12.0110           0
      8265 MEMB     63       POPC     O32      OBL     -0.630000       15.9994           0
      8266 MEMB     63       POPC     C32      CTL2    -0.220000       12.0110           0
      8267 MEMB     63       POPC     H2X      HAL2     0.900000E-01   1.00800           0
      8268 MEMB     63       POPC     H2Y      HAL2     0.900000E-01   1.00800           0
      8269 MEMB     63       POPC     C23      CTL2    -0.180000       12.0110           0
      8270 MEMB     63       POPC     H3R      HAL2     0.900000E-01   1.00800           0
      8271 MEMB     63       POPC     H3S      HAL2     0.900000E-01   1.00800           0
      8272 MEMB     63       POPC     C24      CTL2    -0.180000       12.0110           0
      8273 MEMB     63       POPC     H4R      HAL2     0.900000E-01   1.00800           0
      8274 MEMB     63       POPC     H4S      HAL2     0.900000E-01   1.00800           0
      8275 MEMB     63       POPC     C25      CTL2    -0.180000       12.0110           0
      8276 MEMB     63       POPC     H5R      HAL2     0.900000E-01   1.00800           0
      8277 MEMB     63       POPC     H5S      HAL2     0.900000E-01   1.00800           0
      8278 MEMB     63       POPC     C26      CTL2    -0.180000       12.0110           0
      8279 MEMB     63       POPC     H6R      HAL2     0.900000E-01   1.00800           0
      8280 MEMB     63       POPC     H6S      HAL2     0.900000E-01   1.00800           0
      8281 MEMB     63       POPC     C27      CTL2    -0.180000       12.0110           0
      8282 MEMB     63       POPC     H7R      HAL2     0.900000E-01   1.00800           0
      8283 MEMB     63       POPC     H7S      HAL2     0.900000E-01   1.00800           0
      8284 MEMB     63       POPC     C28      CTL2    -0.180000       12.0110           0
      8285 MEMB     63       POPC     H8R      HAL2     0.900000E-01   1.00800           0
      8286 MEMB     63       POPC     H8S      HAL2     0.900000E-01   1.00800           0
      8287 MEMB     63       POPC     C29      CEL1    -0.150000       12.0110           0
      8288 MEMB     63       POPC     H91      HEL1     0.150000       1.00800           0
      8289 MEMB     63       POPC     C210     CEL1    -0.150000       12.0110           0
      8290 MEMB     63       POPC     H101     HEL1     0.150000       1.00800           0
      8291 MEMB     63       POPC     C211     CTL2    -0.180000       12.0110           0
      8292 MEMB     63       POPC     H11R     HAL2     0.900000E-01   1.00800           0
      8293 MEMB     63       POPC     H11S     HAL2     0.900000E-01   1.00800           0
      8294 MEMB     63       POPC     C212     CTL2    -0.180000       12.0110           0
      8295 MEMB     63       POPC     H12R     HAL2     0.900000E-01   1.00800           0
      8296 MEMB     63       POPC     H12S     HAL2     0.900000E-01   1.00800           0
      8297 MEMB     63       POPC     C213     CTL2    -0.180000       12.0110           0
      8298 MEMB     63       POPC     H13R     HAL2     0.900000E-01   1.00800           0
      8299 MEMB     63       POPC     H13S     HAL2     0.900000E-01   1.00800           0
      8300 MEMB     63       POPC     C214     CTL2    -0.180000       12.0110           0
      8301 MEMB     63       POPC     H14R     HAL2     0.900000E-01   1.00800           0
      8302 MEMB     63       POPC     H14S     HAL2     0.900000E-01   1.00800           0
      8303 MEMB     63       POPC     C215     CTL2    -0.180000       12.0110           0
      8304 MEMB     63       POPC     H15R     HAL2     0.900000E-01   1.00800           0
      8305 MEMB     63       POPC     H15S     HAL2     0.900000E-01   1.00800           0
      8306 MEMB     63       POPC     C216     CTL2    -0.180000       12.0110           0
      8307 MEMB     63       POPC     H16R     HAL2     0.900000E-01   1.00800           0
      8308 MEMB     63       POPC     H16S     HAL2     0.900000E-01   1.00800           0
      8309 MEMB     63       POPC     C217     CTL2    -0.180000       12.0110           0
      8310 MEMB     63       POPC     H17R     HAL2     0.900000E-01   1.00800           0
      8311 MEMB     63       POPC     H17S     HAL2     0.900000E-01   1.00800           0
      8312 MEMB     63       POPC     C218     CTL3    -0.270000       12.0110           0
      8313 MEMB     63       POPC     H18R     HAL3     0.900000E-01   1.00800           0
      8314 MEMB     63       POPC     H18S     HAL3     0.900000E-01   1.00800           0
      8315 MEMB     63       POPC     H18T     HAL3     0.900000E-01   1.00800           0
      8316 MEMB     63       POPC     C33      CTL2    -0.180000       12.0110           0
      8317 MEMB     63       POPC     H3X      HAL2     0.900000E-01   1.00800           0
      8318 MEMB     63       POPC     H3Y      HAL2     0.900000E-01   1.00800           0
      8319 MEMB     63       POPC     C34      CTL2    -0.180000       12.0110           0
      8320 MEMB     63       POPC     H4X      HAL2     0.900000E-01   1.00800           0
      8321 MEMB     63       POPC     H4Y      HAL2     0.900000E-01   1.00800           0
      8322 MEMB     63       POPC     C35      CTL2    -0.180000       12.0110           0
      8323 MEMB     63       POPC     H5X      HAL2     0.900000E-01   1.00800           0
      8324 MEMB     63       POPC     H5Y      HAL2     0.900000E-01   1.00800           0
      8325 MEMB     63       POPC     C36      CTL2    -0.180000       12.0110           0
      8326 MEMB     63       POPC     H6X      HAL2     0.900000E-01   1.00800           0
      8327 MEMB     63       POPC     H6Y      HAL2     0.900000E-01   1.00800           0
      8328 MEMB     63       POPC     C37      CTL2    -0.180000       12.0110           0
      8329 MEMB     63       POPC     H7X      HAL2     0.900000E-01   1.00800           0
      8330 MEMB     63       POPC     H7Y      HAL2     0.900000E-01   1.00800           0
      8331 MEMB     63       POPC     C38      CTL2    -0.180000       12.0110           0
      8332 MEMB     63       POPC     H8X      HAL2     0.900000E-01   1.00800           0
      8333 MEMB     63       POPC     H8Y      HAL2     0.900000E-01   1.00800           0
      8334 MEMB     63       POPC     C39      CTL2    -0.180000       12.0110           0
      8335 MEMB     63       POPC     H9X      HAL2     0.900000E-01   1.00800           0
      8336 MEMB     63       POPC     H9Y      HAL2     0.900000E-01   1.00800           0
      8337 MEMB     63       POPC     C310     CTL2    -0.180000       12.0110           0
      8338 MEMB     63       POPC     H10X     HAL2     0.900000E-01   1.00800           0
      8339 MEMB     63       POPC     H10Y     HAL2     0.900000E-01   1.00800           0
      8340 MEMB     63       POPC     C311     CTL2    -0.180000       12.0110           0
      8341 MEMB     63       POPC     H11X     HAL2     0.900000E-01   1.00800           0
      8342 MEMB     63       POPC     H11Y     HAL2     0.900000E-01   1.00800           0
      8343 MEMB     63       POPC     C312     CTL2    -0.180000       12.0110           0
      8344 MEMB     63       POPC     H12X     HAL2     0.900000E-01   1.00800           0
      8345 MEMB     63       POPC     H12Y     HAL2     0.900000E-01   1.00800           0
      8346 MEMB     63       POPC     C313     CTL2    -0.180000       12.0110           0
      8347 MEMB     63       POPC     H13X     HAL2     0.900000E-01   1.00800           0
      8348 MEMB     63       POPC     H13Y     HAL2     0.900000E-01   1.00800           0
      8349 MEMB     63       POPC     C314     CTL2    -0.180000       12.0110           0
      8350 MEMB     63       POPC     H14X     HAL2     0.900000E-01   1.00800           0
      8351 MEMB     63       POPC     H14Y     HAL2     0.900000E-01   1.00800           0
      8352 MEMB     63       POPC     C315     CTL2    -0.180000       12.0110           0
      8353 MEMB     63       POPC     H15X     HAL2     0.900000E-01   1.00800           0
      8354 MEMB     63       POPC     H15Y     HAL2     0.900000E-01   1.00800           0
      8355 MEMB     63       POPC     C316     CTL3    -0.270000       12.0110           0
      8356 MEMB     63       POPC     H16X     HAL3     0.900000E-01   1.00800           0
      8357 MEMB     63       POPC     H16Y     HAL3     0.900000E-01   1.00800           0
      8358 MEMB     63       POPC     H16Z     HAL3     0.900000E-01   1.00800           0
      8359 MEMB     64       POPS     N        NH3L    -0.300000       14.0070           0
      8360 MEMB     64       POPS     HN1      HCL      0.330000       1.00800           0
      8361 MEMB     64       POPS     HN2      HCL      0.330000       1.00800           0
      8362 MEMB     64       POPS     HN3      HCL      0.330000       1.00800           0
      8363 MEMB     64       POPS     C12      CTL1     0.210000       12.0110           0
      8364 MEMB     64       POPS     H12A     HBL      0.100000       1.00800           0
      8365 MEMB     64       POPS     C13      CCL      0.340000       12.0110           0
      8366 MEMB     64       POPS     O13A     OCL     -0.670000       15.9994           0
      8367 MEMB     64       POPS     O13B     OCL     -0.670000       15.9994           0
      8368 MEMB     64       POPS     C11      CTL2    -0.800000E-01   12.0110           0
      8369 MEMB     64       POPS     H11A     HAL2     0.900000E-01   1.00800           0
      8370 MEMB     64       POPS     H11B     HAL2     0.900000E-01   1.00800           0
      8371 MEMB     64       POPS     P        PL        1.50000       30.9740           0
      8372 MEMB     64       POPS     O13      O2L     -0.780000       15.9994           0
      8373 MEMB     64       POPS     O14      O2L     -0.780000       15.9994           0
      8374 MEMB     64       POPS     O12      OSLP    -0.570000       15.9994           0
      8375 MEMB     64       POPS     O11      OSLP    -0.570000       15.9994           0
      8376 MEMB     64       POPS     C1       CTL2    -0.800000E-01   12.0110           0
      8377 MEMB     64       POPS     HA       HAL2     0.900000E-01   1.00800           0
      8378 MEMB     64       POPS     HB       HAL2     0.900000E-01   1.00800           0
      8379 MEMB     64       POPS     C2       CTL1     0.170000       12.0110           0
      8380 MEMB     64       POPS     HS       HAL1     0.900000E-01   1.00800           0
      8381 MEMB     64       POPS     O21      OSL     -0.490000       15.9994           0
      8382 MEMB     64       POPS     C21      CL       0.900000       12.0110           0
      8383 MEMB     64       POPS     O22      OBL     -0.630000       15.9994           0
      8384 MEMB     64       POPS     C22      CTL2    -0.220000       12.0110           0
      8385 MEMB     64       POPS     H2R      HAL2     0.900000E-01   1.00800           0
      8386 MEMB     64       POPS     H2S      HAL2     0.900000E-01   1.00800           0
      8387 MEMB     64       POPS     C3       CTL2     0.800000E-01   12.0110           0
      8388 MEMB     64       POPS     HX       HAL2     0.900000E-01   1.00800           0
      8389 MEMB     64       POPS     HY       HAL2     0.900000E-01   1.00800           0
      8390 MEMB     64       POPS     O31      OSL     -0.490000       15.9994           0
      8391 MEMB     64       POPS     C31      CL       0.900000       12.0110           0
      8392 MEMB     64       POPS     O32      OBL     -0.630000       15.9994           0
      8393 MEMB     64       POPS     C32      CTL2    -0.220000       12.0110           0
      8394 MEMB     64       POPS     H2X      HAL2     0.900000E-01   1.00800           0
      8395 MEMB     64       POPS     H2Y      HAL2     0.900000E-01   1.00800           0
      8396 MEMB     64       POPS     C23      CTL2    -0.180000       12.0110           0
      8397 MEMB     64       POPS     H3R      HAL2     0.900000E-01   1.00800           0
      8398 MEMB     64       POPS     H3S      HAL2     0.900000E-01   1.00800           0
      8399 MEMB     64       POPS     C24      CTL2    -0.180000       12.0110           0
      8400 MEMB     64       POPS     H4R      HAL2     0.900000E-01   1.00800           0
      8401 MEMB     64       POPS     H4S      HAL2     0.900000E-01   1.00800           0
      8402 MEMB     64       POPS     C25      CTL2    -0.180000       12.0110           0
      8403 MEMB     64       POPS     H5R      HAL2     0.900000E-01   1.00800           0
      8404 MEMB     64       POPS     H5S      HAL2     0.900000E-01   1.00800           0
      8405 MEMB     64       POPS     C26      CTL2    -0.180000       12.0110           0
      8406 MEMB     64       POPS     H6R      HAL2     0.900000E-01   1.00800           0
      8407 MEMB     64       POPS     H6S      HAL2     0.900000E-01   1.00800           0
      8408 MEMB     64       POPS     C27      CTL2    -0.180000       12.0110           0
      8409 MEMB     64       POPS     H7R      HAL2     0.900000E-01   1.00800           0
      8410 MEMB     64       POPS     H7S      HAL2     0.900000E-01   1.00800           0
      8411 MEMB     64       POPS     C28      CTL2    -0.180000       12.0110           0
      8412 MEMB     64       POPS     H8R      HAL2     0.900000E-01   1.00800           0
      8413 MEMB     64       POPS     H8S      HAL2     0.900000E-01   1.00800           0
      8414 MEMB     64       POPS     C29      CEL1    -0.150000       12.0110           0
      8415 MEMB     64       POPS     H91      HEL1     0.150000       1.00800           0
      8416 MEMB     64       POPS     C210     CEL1    -0.150000       12.0110           0
      8417 MEMB     64       POPS     H101     HEL1     0.150000       1.00800           0
      8418 MEMB     64       POPS     C211     CTL2    -0.180000       12.0110           0
      8419 MEMB     64       POPS     H11R     HAL2     0.900000E-01   1.00800           0
      8420 MEMB     64       POPS     H11S     HAL2     0.900000E-01   1.00800           0
      8421 MEMB     64       POPS     C212     CTL2    -0.180000       12.0110           0
      8422 MEMB     64       POPS     H12R     HAL2     0.900000E-01   1.00800           0
      8423 MEMB     64       POPS     H12S     HAL2     0.900000E-01   1.00800           0
      8424 MEMB     64       POPS     C213     CTL2    -0.180000       12.0110           0
      8425 MEMB     64       POPS     H13R     HAL2     0.900000E-01   1.00800           0
      8426 MEMB     64       POPS     H13S     HAL2     0.900000E-01   1.00800           0
      8427 MEMB     64       POPS     C214     CTL2    -0.180000       12.0110           0
      8428 MEMB     64       POPS     H14R     HAL2     0.900000E-01   1.00800           0
      8429 MEMB     64       POPS     H14S     HAL2     0.900000E-01   1.00800           0
      8430 MEMB     64       POPS     C215     CTL2    -0.180000       12.0110           0
      8431 MEMB     64       POPS     H15R     HAL2     0.900000E-01   1.00800           0
      8432 MEMB     64       POPS     H15S     HAL2     0.900000E-01   1.00800           0
      8433 MEMB     64       POPS     C216     CTL2    -0.180000       12.0110           0
      8434 MEMB     64       POPS     H16R     HAL2     0.900000E-01   1.00800           0
      8435 MEMB     64       POPS     H16S     HAL2     0.900000E-01   1.00800           0
      8436 MEMB     64       POPS     C217     CTL2    -0.180000       12.0110           0
      8437 MEMB     64       POPS     H17R     HAL2     0.900000E-01   1.00800           0
      8438 MEMB     64       POPS     H17S     HAL2     0.900000E-01   1.00800           0
      8439 MEMB     64       POPS     C218     CTL3    -0.270000       12.0110           0
      8440 MEMB     64       POPS     H18R     HAL3     0.900000E-01   1.00800           0
      8441 MEMB     64       POPS     H18S     HAL3     0.900000E-01   1.00800           0
      8442 MEMB     64       POPS     H18T     HAL3     0.900000E-01   1.00800           0
      8443 MEMB     64       POPS     C33      CTL2    -0.180000       12.0110           0
      8444 MEMB     64       POPS     H3X      HAL2     0.900000E-01   1.00800           0
      8445 MEMB     64       POPS     H3Y      HAL2     0.900000E-01   1.00800           0
      8446 MEMB     64       POPS     C34      CTL2    -0.180000       12.0110           0
      8447 MEMB     64       POPS     H4X      HAL2     0.900000E-01   1.00800           0
      8448 MEMB     64       POPS     H4Y      HAL2     0.900000E-01   1.00800           0
      8449 MEMB     64       POPS     C35      CTL2    -0.180000       12.0110           0
      8450 MEMB     64       POPS     H5X      HAL2     0.900000E-01   1.00800           0
      8451 MEMB     64       POPS     H5Y      HAL2     0.900000E-01   1.00800           0
      8452 MEMB     64       POPS     C36      CTL2    -0.180000       12.0110           0
      8453 MEMB     64       POPS     H6X      HAL2     0.900000E-01   1.00800           0
      8454 MEMB     64       POPS     H6Y      HAL2     0.900000E-01   1.00800           0
      8455 MEMB     64       POPS     C37      CTL2    -0.180000       12.0110           0
      8456 MEMB     64       POPS     H7X      HAL2     0.900000E-01   1.00800           0
      8457 MEMB     64       POPS     H7Y      HAL2     0.900000E-01   1.00800           0
      8458 MEMB     64       POPS     C38      CTL2    -0.180000       12.0110           0
      8459 MEMB     64       POPS     H8X      HAL2     0.900000E-01   1.00800           0
      8460 MEMB     64       POPS     H8Y      HAL2     0.900000E-01   1.00800           0
      8461 MEMB     64       POPS     C39      CTL2    -0.180000       12.0110           0
      8462 MEMB     64       POPS     H9X      HAL2     0.900000E-01   1.00800           0
      8463 MEMB     64       POPS     H9Y      HAL2     0.900000E-01   1.00800           0
      8464 MEMB     64       POPS     C310     CTL2    -0.180000       12.0110           0
      8465 MEMB     64       POPS     H10X     HAL2     0.900000E-01   1.00800           0
      8466 MEMB     64       POPS     H10Y     HAL2     0.900000E-01   1.00800           0
      8467 MEMB     64       POPS     C311     CTL2    -0.180000       12.0110           0
      8468 MEMB     64       POPS     H11X     HAL2     0.900000E-01   1.00800           0
      8469 MEMB     64       POPS     H11Y     HAL2     0.900000E-01   1.00800           0
      8470 MEMB     64       POPS     C312     CTL2    -0.180000       12.0110           0
      8471 MEMB     64       POPS     H12X     HAL2     0.900000E-01   1.00800           0
      8472 MEMB     64       POPS     H12Y     HAL2     0.900000E-01   1.00800           0
      8473 MEMB     64       POPS     C313     CTL2    -0.180000       12.0110           0
      8474 MEMB     64       POPS     H13X     HAL2     0.900000E-01   1.00800           0
      8475 MEMB     64       POPS     H13Y     HAL2     0.900000E-01   1.00800           0
      8476 MEMB     64       POPS     C314     CTL2    -0.180000       12.0110           0
      8477 MEMB     64       POPS     H14X     HAL2     0.900000E-01   1.00800           0
      8478 MEMB     64       POPS     H14Y     HAL2     0.900000E-01   1.00800           0
      8479 MEMB     64       POPS     C315     CTL2    -0.180000       12.0110           0
      8480 MEMB     64       POPS     H15X     HAL2     0.900000E-01   1.00800           0
      8481 MEMB     64       POPS     H15Y     HAL2     0.900000E-01   1.00800           0
      8482 MEMB     64       POPS     C316     CTL3    -0.270000       12.0110           0
      8483 MEMB     64       POPS     H16X     HAL3     0.900000E-01   1.00800           0
      8484 MEMB     64       POPS     H16Y     HAL3     0.900000E-01   1.00800           0
      8485 MEMB     64       POPS     H16Z     HAL3     0.900000E-01   1.00800           0
      8486 MEMB     65       POPC     N        NTL     -0.600000       14.0070           0
      8487 MEMB     65       POPC     C12      CTL2    -0.100000       12.0110           0
      8488 MEMB     65       POPC     H12A     HL       0.250000       1.00800           0
      8489 MEMB     65       POPC     H12B     HL       0.250000       1.00800           0
      8490 MEMB     65       POPC     C13      CTL5    -0.350000       12.0110           0
      8491 MEMB     65       POPC     H13A     HL       0.250000       1.00800           0
      8492 MEMB     65       POPC     H13B     HL       0.250000       1.00800           0
      8493 MEMB     65       POPC     H13C     HL       0.250000       1.00800           0
      8494 MEMB     65       POPC     C14      CTL5    -0.350000       12.0110           0
      8495 MEMB     65       POPC     H14A     HL       0.250000       1.00800           0
      8496 MEMB     65       POPC     H14B     HL       0.250000       1.00800           0
      8497 MEMB     65       POPC     H14C     HL       0.250000       1.00800           0
      8498 MEMB     65       POPC     C15      CTL5    -0.350000       12.0110           0
      8499 MEMB     65       POPC     H15A     HL       0.250000       1.00800           0
      8500 MEMB     65       POPC     H15B     HL       0.250000       1.00800           0
      8501 MEMB     65       POPC     H15C     HL       0.250000       1.00800           0
      8502 MEMB     65       POPC     C11      CTL2    -0.800000E-01   12.0110           0
      8503 MEMB     65       POPC     H11A     HAL2     0.900000E-01   1.00800           0
      8504 MEMB     65       POPC     H11B     HAL2     0.900000E-01   1.00800           0
      8505 MEMB     65       POPC     P        PL        1.50000       30.9740           0
      8506 MEMB     65       POPC     O13      O2L     -0.780000       15.9994           0
      8507 MEMB     65       POPC     O14      O2L     -0.780000       15.9994           0
      8508 MEMB     65       POPC     O12      OSLP    -0.570000       15.9994           0
      8509 MEMB     65       POPC     O11      OSLP    -0.570000       15.9994           0
      8510 MEMB     65       POPC     C1       CTL2    -0.800000E-01   12.0110           0
      8511 MEMB     65       POPC     HA       HAL2     0.900000E-01   1.00800           0
      8512 MEMB     65       POPC     HB       HAL2     0.900000E-01   1.00800           0
      8513 MEMB     65       POPC     C2       CTL1     0.170000       12.0110           0
      8514 MEMB     65       POPC     HS       HAL1     0.900000E-01   1.00800           0
      8515 MEMB     65       POPC     O21      OSL     -0.490000       15.9994           0
      8516 MEMB     65       POPC     C21      CL       0.900000       12.0110           0
      8517 MEMB     65       POPC     O22      OBL     -0.630000       15.9994           0
      8518 MEMB     65       POPC     C22      CTL2    -0.220000       12.0110           0
      8519 MEMB     65       POPC     H2R      HAL2     0.900000E-01   1.00800           0
      8520 MEMB     65       POPC     H2S      HAL2     0.900000E-01   1.00800           0
      8521 MEMB     65       POPC     C3       CTL2     0.800000E-01   12.0110           0
      8522 MEMB     65       POPC     HX       HAL2     0.900000E-01   1.00800           0
      8523 MEMB     65       POPC     HY       HAL2     0.900000E-01   1.00800           0
      8524 MEMB     65       POPC     O31      OSL     -0.490000       15.9994           0
      8525 MEMB     65       POPC     C31      CL       0.900000       12.0110           0
      8526 MEMB     65       POPC     O32      OBL     -0.630000       15.9994           0
      8527 MEMB     65       POPC     C32      CTL2    -0.220000       12.0110           0
      8528 MEMB     65       POPC     H2X      HAL2     0.900000E-01   1.00800           0
      8529 MEMB     65       POPC     H2Y      HAL2     0.900000E-01   1.00800           0
      8530 MEMB     65       POPC     C23      CTL2    -0.180000       12.0110           0
      8531 MEMB     65       POPC     H3R      HAL2     0.900000E-01   1.00800           0
      8532 MEMB     65       POPC     H3S      HAL2     0.900000E-01   1.00800           0
      8533 MEMB     65       POPC     C24      CTL2    -0.180000       12.0110           0
      8534 MEMB     65       POPC     H4R      HAL2     0.900000E-01   1.00800           0
      8535 MEMB     65       POPC     H4S      HAL2     0.900000E-01   1.00800           0
      8536 MEMB     65       POPC     C25      CTL2    -0.180000       12.0110           0
      8537 MEMB     65       POPC     H5R      HAL2     0.900000E-01   1.00800           0
      8538 MEMB     65       POPC     H5S      HAL2     0.900000E-01   1.00800           0
      8539 MEMB     65       POPC     C26      CTL2    -0.180000       12.0110           0
      8540 MEMB     65       POPC     H6R      HAL2     0.900000E-01   1.00800           0
      8541 MEMB     65       POPC     H6S      HAL2     0.900000E-01   1.00800           0
      8542 MEMB     65       POPC     C27      CTL2    -0.180000       12.0110           0
      8543 MEMB     65       POPC     H7R      HAL2     0.900000E-01   1.00800           0
      8544 MEMB     65       POPC     H7S      HAL2     0.900000E-01   1.00800           0
      8545 MEMB     65       POPC     C28      CTL2    -0.180000       12.0110           0
      8546 MEMB     65       POPC     H8R      HAL2     0.900000E-01   1.00800           0
      8547 MEMB     65       POPC     H8S      HAL2     0.900000E-01   1.00800           0
      8548 MEMB     65       POPC     C29      CEL1    -0.150000       12.0110           0
      8549 MEMB     65       POPC     H91      HEL1     0.150000       1.00800           0
      8550 MEMB     65       POPC     C210     CEL1    -0.150000       12.0110           0
      8551 MEMB     65       POPC     H101     HEL1     0.150000       1.00800           0
      8552 MEMB     65       POPC     C211     CTL2    -0.180000       12.0110           0
      8553 MEMB     65       POPC     H11R     HAL2     0.900000E-01   1.00800           0
      8554 MEMB     65       POPC     H11S     HAL2     0.900000E-01   1.00800           0
      8555 MEMB     65       POPC     C212     CTL2    -0.180000       12.0110           0
      8556 MEMB     65       POPC     H12R     HAL2     0.900000E-01   1.00800           0
      8557 MEMB     65       POPC     H12S     HAL2     0.900000E-01   1.00800           0
      8558 MEMB     65       POPC     C213     CTL2    -0.180000       12.0110           0
      8559 MEMB     65       POPC     H13R     HAL2     0.900000E-01   1.00800           0
      8560 MEMB     65       POPC     H13S     HAL2     0.900000E-01   1.00800           0
      8561 MEMB     65       POPC     C214     CTL2    -0.180000       12.0110           0
      8562 MEMB     65       POPC     H14R     HAL2     0.900000E-01   1.00800           0
      8563 MEMB     65       POPC     H14S     HAL2     0.900000E-01   1.00800           0
      8564 MEMB     65       POPC     C215     CTL2    -0.180000       12.0110           0
      8565 MEMB     65       POPC     H15R     HAL2     0.900000E-01   1.00800           0
      8566 MEMB     65       POPC     H15S     HAL2     0.900000E-01   1.00800           0
      8567 MEMB     65       POPC     C216     CTL2    -0.180000       12.0110           0
      8568 MEMB     65       POPC     H16R     HAL2     0.900000E-01   1.00800           0
      8569 MEMB     65       POPC     H16S     HAL2     0.900000E-01   1.00800           0
      8570 MEMB     65       POPC     C217     CTL2    -0.180000       12.0110           0
      8571 MEMB     65       POPC     H17R     HAL2     0.900000E-01   1.00800           0
      8572 MEMB     65       POPC     H17S     HAL2     0.900000E-01   1.00800           0
      8573 MEMB     65       POPC     C218     CTL3    -0.270000       12.0110           0
      8574 MEMB     65       POPC     H18R     HAL3     0.900000E-01   1.00800           0
      8575 MEMB     65       POPC     H18S     HAL3     0.900000E-01   1.00800           0
      8576 MEMB     65       POPC     H18T     HAL3     0.900000E-01   1.00800           0
      8577 MEMB     65       POPC     C33      CTL2    -0.180000       12.0110           0
      8578 MEMB     65       POPC     H3X      HAL2     0.900000E-01   1.00800           0
      8579 MEMB     65       POPC     H3Y      HAL2     0.900000E-01   1.00800           0
      8580 MEMB     65       POPC     C34      CTL2    -0.180000       12.0110           0
      8581 MEMB     65       POPC     H4X      HAL2     0.900000E-01   1.00800           0
      8582 MEMB     65       POPC     H4Y      HAL2     0.900000E-01   1.00800           0
      8583 MEMB     65       POPC     C35      CTL2    -0.180000       12.0110           0
      8584 MEMB     65       POPC     H5X      HAL2     0.900000E-01   1.00800           0
      8585 MEMB     65       POPC     H5Y      HAL2     0.900000E-01   1.00800           0
      8586 MEMB     65       POPC     C36      CTL2    -0.180000       12.0110           0
      8587 MEMB     65       POPC     H6X      HAL2     0.900000E-01   1.00800           0
      8588 MEMB     65       POPC     H6Y      HAL2     0.900000E-01   1.00800           0
      8589 MEMB     65       POPC     C37      CTL2    -0.180000       12.0110           0
      8590 MEMB     65       POPC     H7X      HAL2     0.900000E-01   1.00800           0
      8591 MEMB     65       POPC     H7Y      HAL2     0.900000E-01   1.00800           0
      8592 MEMB     65       POPC     C38      CTL2    -0.180000       12.0110           0
      8593 MEMB     65       POPC     H8X      HAL2     0.900000E-01   1.00800           0
      8594 MEMB     65       POPC     H8Y      HAL2     0.900000E-01   1.00800           0
      8595 MEMB     65       POPC     C39      CTL2    -0.180000       12.0110           0
      8596 MEMB     65       POPC     H9X      HAL2     0.900000E-01   1.00800           0
      8597 MEMB     65       POPC     H9Y      HAL2     0.900000E-01   1.00800           0
      8598 MEMB     65       POPC     C310     CTL2    -0.180000       12.0110           0
      8599 MEMB     65       POPC     H10X     HAL2     0.900000E-01   1.00800           0
      8600 MEMB     65       POPC     H10Y     HAL2     0.900000E-01   1.00800           0
      8601 MEMB     65       POPC     C311     CTL2    -0.180000       12.0110           0
      8602 MEMB     65       POPC     H11X     HAL2     0.900000E-01   1.00800           0
      8603 MEMB     65       POPC     H11Y     HAL2     0.900000E-01   1.00800           0
      8604 MEMB     65       POPC     C312     CTL2    -0.180000       12.0110           0
      8605 MEMB     65       POPC     H12X     HAL2     0.900000E-01   1.00800           0
      8606 MEMB     65       POPC     H12Y     HAL2     0.900000E-01   1.00800           0
      8607 MEMB     65       POPC     C313     CTL2    -0.180000       12.0110           0
      8608 MEMB     65       POPC     H13X     HAL2     0.900000E-01   1.00800           0
      8609 MEMB     65       POPC     H13Y     HAL2     0.900000E-01   1.00800           0
      8610 MEMB     65       POPC     C314     CTL2    -0.180000       12.0110           0
      8611 MEMB     65       POPC     H14X     HAL2     0.900000E-01   1.00800           0
      8612 MEMB     65       POPC     H14Y     HAL2     0.900000E-01   1.00800           0
      8613 MEMB     65       POPC     C315     CTL2    -0.180000       12.0110           0
      8614 MEMB     65       POPC     H15X     HAL2     0.900000E-01   1.00800           0
      8615 MEMB     65       POPC     H15Y     HAL2     0.900000E-01   1.00800           0
      8616 MEMB     65       POPC     C316     CTL3    -0.270000       12.0110           0
      8617 MEMB     65       POPC     H16X     HAL3     0.900000E-01   1.00800           0
      8618 MEMB     65       POPC     H16Y     HAL3     0.900000E-01   1.00800           0
      8619 MEMB     65       POPC     H16Z     HAL3     0.900000E-01   1.00800           0
      8620 MEMB     66       POPC     N        NTL     -0.600000       14.0070           0
      8621 MEMB     66       POPC     C12      CTL2    -0.100000       12.0110           0
      8622 MEMB     66       POPC     H12A     HL       0.250000       1.00800           0
      8623 MEMB     66       POPC     H12B     HL       0.250000       1.00800           0
      8624 MEMB     66       POPC     C13      CTL5    -0.350000       12.0110           0
      8625 MEMB     66       POPC     H13A     HL       0.250000       1.00800           0
      8626 MEMB     66       POPC     H13B     HL       0.250000       1.00800           0
      8627 MEMB     66       POPC     H13C     HL       0.250000       1.00800           0
      8628 MEMB     66       POPC     C14      CTL5    -0.350000       12.0110           0
      8629 MEMB     66       POPC     H14A     HL       0.250000       1.00800           0
      8630 MEMB     66       POPC     H14B     HL       0.250000       1.00800           0
      8631 MEMB     66       POPC     H14C     HL       0.250000       1.00800           0
      8632 MEMB     66       POPC     C15      CTL5    -0.350000       12.0110           0
      8633 MEMB     66       POPC     H15A     HL       0.250000       1.00800           0
      8634 MEMB     66       POPC     H15B     HL       0.250000       1.00800           0
      8635 MEMB     66       POPC     H15C     HL       0.250000       1.00800           0
      8636 MEMB     66       POPC     C11      CTL2    -0.800000E-01   12.0110           0
      8637 MEMB     66       POPC     H11A     HAL2     0.900000E-01   1.00800           0
      8638 MEMB     66       POPC     H11B     HAL2     0.900000E-01   1.00800           0
      8639 MEMB     66       POPC     P        PL        1.50000       30.9740           0
      8640 MEMB     66       POPC     O13      O2L     -0.780000       15.9994           0
      8641 MEMB     66       POPC     O14      O2L     -0.780000       15.9994           0
      8642 MEMB     66       POPC     O12      OSLP    -0.570000       15.9994           0
      8643 MEMB     66       POPC     O11      OSLP    -0.570000       15.9994           0
      8644 MEMB     66       POPC     C1       CTL2    -0.800000E-01   12.0110           0
      8645 MEMB     66       POPC     HA       HAL2     0.900000E-01   1.00800           0
      8646 MEMB     66       POPC     HB       HAL2     0.900000E-01   1.00800           0
      8647 MEMB     66       POPC     C2       CTL1     0.170000       12.0110           0
      8648 MEMB     66       POPC     HS       HAL1     0.900000E-01   1.00800           0
      8649 MEMB     66       POPC     O21      OSL     -0.490000       15.9994           0
      8650 MEMB     66       POPC     C21      CL       0.900000       12.0110           0
      8651 MEMB     66       POPC     O22      OBL     -0.630000       15.9994           0
      8652 MEMB     66       POPC     C22      CTL2    -0.220000       12.0110           0
      8653 MEMB     66       POPC     H2R      HAL2     0.900000E-01   1.00800           0
      8654 MEMB     66       POPC     H2S      HAL2     0.900000E-01   1.00800           0
      8655 MEMB     66       POPC     C3       CTL2     0.800000E-01   12.0110           0
      8656 MEMB     66       POPC     HX       HAL2     0.900000E-01   1.00800           0
      8657 MEMB     66       POPC     HY       HAL2     0.900000E-01   1.00800           0
      8658 MEMB     66       POPC     O31      OSL     -0.490000       15.9994           0
      8659 MEMB     66       POPC     C31      CL       0.900000       12.0110           0
      8660 MEMB     66       POPC     O32      OBL     -0.630000       15.9994           0
      8661 MEMB     66       POPC     C32      CTL2    -0.220000       12.0110           0
      8662 MEMB     66       POPC     H2X      HAL2     0.900000E-01   1.00800           0
      8663 MEMB     66       POPC     H2Y      HAL2     0.900000E-01   1.00800           0
      8664 MEMB     66       POPC     C23      CTL2    -0.180000       12.0110           0
      8665 MEMB     66       POPC     H3R      HAL2     0.900000E-01   1.00800           0
      8666 MEMB     66       POPC     H3S      HAL2     0.900000E-01   1.00800           0
      8667 MEMB     66       POPC     C24      CTL2    -0.180000       12.0110           0
      8668 MEMB     66       POPC     H4R      HAL2     0.900000E-01   1.00800           0
      8669 MEMB     66       POPC     H4S      HAL2     0.900000E-01   1.00800           0
      8670 MEMB     66       POPC     C25      CTL2    -0.180000       12.0110           0
      8671 MEMB     66       POPC     H5R      HAL2     0.900000E-01   1.00800           0
      8672 MEMB     66       POPC     H5S      HAL2     0.900000E-01   1.00800           0
      8673 MEMB     66       POPC     C26      CTL2    -0.180000       12.0110           0
      8674 MEMB     66       POPC     H6R      HAL2     0.900000E-01   1.00800           0
      8675 MEMB     66       POPC     H6S      HAL2     0.900000E-01   1.00800           0
      8676 MEMB     66       POPC     C27      CTL2    -0.180000       12.0110           0
      8677 MEMB     66       POPC     H7R      HAL2     0.900000E-01   1.00800           0
      8678 MEMB     66       POPC     H7S      HAL2     0.900000E-01   1.00800           0
      8679 MEMB     66       POPC     C28      CTL2    -0.180000       12.0110           0
      8680 MEMB     66       POPC     H8R      HAL2     0.900000E-01   1.00800           0
      8681 MEMB     66       POPC     H8S      HAL2     0.900000E-01   1.00800           0
      8682 MEMB     66       POPC     C29      CEL1    -0.150000       12.0110           0
      8683 MEMB     66       POPC     H91      HEL1     0.150000       1.00800           0
      8684 MEMB     66       POPC     C210     CEL1    -0.150000       12.0110           0
      8685 MEMB     66       POPC     H101     HEL1     0.150000       1.00800           0
      8686 MEMB     66       POPC     C211     CTL2    -0.180000       12.0110           0
      8687 MEMB     66       POPC     H11R     HAL2     0.900000E-01   1.00800           0
      8688 MEMB     66       POPC     H11S     HAL2     0.900000E-01   1.00800           0
      8689 MEMB     66       POPC     C212     CTL2    -0.180000       12.0110           0
      8690 MEMB     66       POPC     H12R     HAL2     0.900000E-01   1.00800           0
      8691 MEMB     66       POPC     H12S     HAL2     0.900000E-01   1.00800           0
      8692 MEMB     66       POPC     C213     CTL2    -0.180000       12.0110           0
      8693 MEMB     66       POPC     H13R     HAL2     0.900000E-01   1.00800           0
      8694 MEMB     66       POPC     H13S     HAL2     0.900000E-01   1.00800           0
      8695 MEMB     66       POPC     C214     CTL2    -0.180000       12.0110           0
      8696 MEMB     66       POPC     H14R     HAL2     0.900000E-01   1.00800           0
      8697 MEMB     66       POPC     H14S     HAL2     0.900000E-01   1.00800           0
      8698 MEMB     66       POPC     C215     CTL2    -0.180000       12.0110           0
      8699 MEMB     66       POPC     H15R     HAL2     0.900000E-01   1.00800           0
      8700 MEMB     66       POPC     H15S     HAL2     0.900000E-01   1.00800           0
      8701 MEMB     66       POPC     C216     CTL2    -0.180000       12.0110           0
      8702 MEMB     66       POPC     H16R     HAL2     0.900000E-01   1.00800           0
      8703 MEMB     66       POPC     H16S     HAL2     0.900000E-01   1.00800           0
      8704 MEMB     66       POPC     C217     CTL2    -0.180000       12.0110           0
      8705 MEMB     66       POPC     H17R     HAL2     0.900000E-01   1.00800           0
      8706 MEMB     66       POPC     H17S     HAL2     0.900000E-01   1.00800           0
      8707 MEMB     66       POPC     C218     CTL3    -0.270000       12.0110           0
      8708 MEMB     66       POPC     H18R     HAL3     0.900000E-01   1.00800           0
      8709 MEMB     66       POPC     H18S     HAL3     0.900000E-01   1.00800           0
      8710 MEMB     66       POPC     H18T     HAL3     0.900000E-01   1.00800           0
      8711 MEMB     66       POPC     C33      CTL2    -0.180000       12.0110           0
      8712 MEMB     66       POPC     H3X      HAL2     0.900000E-01   1.00800           0
      8713 MEMB     66       POPC     H3Y      HAL2     0.900000E-01   1.00800           0
      8714 MEMB     66       POPC     C34      CTL2    -0.180000       12.0110           0
      8715 MEMB     66       POPC     H4X      HAL2     0.900000E-01   1.00800           0
      8716 MEMB     66       POPC     H4Y      HAL2     0.900000E-01   1.00800           0
      8717 MEMB     66       POPC     C35      CTL2    -0.180000       12.0110           0
      8718 MEMB     66       POPC     H5X      HAL2     0.900000E-01   1.00800           0
      8719 MEMB     66       POPC     H5Y      HAL2     0.900000E-01   1.00800           0
      8720 MEMB     66       POPC     C36      CTL2    -0.180000       12.0110           0
      8721 MEMB     66       POPC     H6X      HAL2     0.900000E-01   1.00800           0
      8722 MEMB     66       POPC     H6Y      HAL2     0.900000E-01   1.00800           0
      8723 MEMB     66       POPC     C37      CTL2    -0.180000       12.0110           0
      8724 MEMB     66       POPC     H7X      HAL2     0.900000E-01   1.00800           0
      8725 MEMB     66       POPC     H7Y      HAL2     0.900000E-01   1.00800           0
      8726 MEMB     66       POPC     C38      CTL2    -0.180000       12.0110           0
      8727 MEMB     66       POPC     H8X      HAL2     0.900000E-01   1.00800           0
      8728 MEMB     66       POPC     H8Y      HAL2     0.900000E-01   1.00800           0
      8729 MEMB     66       POPC     C39      CTL2    -0.180000       12.0110           0
      8730 MEMB     66       POPC     H9X      HAL2     0.900000E-01   1.00800           0
      8731 MEMB     66       POPC     H9Y      HAL2     0.900000E-01   1.00800           0
      8732 MEMB     66       POPC     C310     CTL2    -0.180000       12.0110           0
      8733 MEMB     66       POPC     H10X     HAL2     0.900000E-01   1.00800           0
      8734 MEMB     66       POPC     H10Y     HAL2     0.900000E-01   1.00800           0
      8735 MEMB     66       POPC     C311     CTL2    -0.180000       12.0110           0
      8736 MEMB     66       POPC     H11X     HAL2     0.900000E-01   1.00800           0
      8737 MEMB     66       POPC     H11Y     HAL2     0.900000E-01   1.00800           0
      8738 MEMB     66       POPC     C312     CTL2    -0.180000       12.0110           0
      8739 MEMB     66       POPC     H12X     HAL2     0.900000E-01   1.00800           0
      8740 MEMB     66       POPC     H12Y     HAL2     0.900000E-01   1.00800           0
      8741 MEMB     66       POPC     C313     CTL2    -0.180000       12.0110           0
      8742 MEMB     66       POPC     H13X     HAL2     0.900000E-01   1.00800           0
      8743 MEMB     66       POPC     H13Y     HAL2     0.900000E-01   1.00800           0
      8744 MEMB     66       POPC     C314     CTL2    -0.180000       12.0110           0
      8745 MEMB     66       POPC     H14X     HAL2     0.900000E-01   1.00800           0
      8746 MEMB     66       POPC     H14Y     HAL2     0.900000E-01   1.00800           0
      8747 MEMB     66       POPC     C315     CTL2    -0.180000       12.0110           0
      8748 MEMB     66       POPC     H15X     HAL2     0.900000E-01   1.00800           0
      8749 MEMB     66       POPC     H15Y     HAL2     0.900000E-01   1.00800           0
      8750 MEMB     66       POPC     C316     CTL3    -0.270000       12.0110           0
      8751 MEMB     66       POPC     H16X     HAL3     0.900000E-01   1.00800           0
      8752 MEMB     66       POPC     H16Y     HAL3     0.900000E-01   1.00800           0
      8753 MEMB     66       POPC     H16Z     HAL3     0.900000E-01   1.00800           0
      8754 MEMB     67       POPC     N        NTL     -0.600000       14.0070           0
      8755 MEMB     67       POPC     C12      CTL2    -0.100000       12.0110           0
      8756 MEMB     67       POPC     H12A     HL       0.250000       1.00800           0
      8757 MEMB     67       POPC     H12B     HL       0.250000       1.00800           0
      8758 MEMB     67       POPC     C13      CTL5    -0.350000       12.0110           0
      8759 MEMB     67       POPC     H13A     HL       0.250000       1.00800           0
      8760 MEMB     67       POPC     H13B     HL       0.250000       1.00800           0
      8761 MEMB     67       POPC     H13C     HL       0.250000       1.00800           0
      8762 MEMB     67       POPC     C14      CTL5    -0.350000       12.0110           0
      8763 MEMB     67       POPC     H14A     HL       0.250000       1.00800           0
      8764 MEMB     67       POPC     H14B     HL       0.250000       1.00800           0
      8765 MEMB     67       POPC     H14C     HL       0.250000       1.00800           0
      8766 MEMB     67       POPC     C15      CTL5    -0.350000       12.0110           0
      8767 MEMB     67       POPC     H15A     HL       0.250000       1.00800           0
      8768 MEMB     67       POPC     H15B     HL       0.250000       1.00800           0
      8769 MEMB     67       POPC     H15C     HL       0.250000       1.00800           0
      8770 MEMB     67       POPC     C11      CTL2    -0.800000E-01   12.0110           0
      8771 MEMB     67       POPC     H11A     HAL2     0.900000E-01   1.00800           0
      8772 MEMB     67       POPC     H11B     HAL2     0.900000E-01   1.00800           0
      8773 MEMB     67       POPC     P        PL        1.50000       30.9740           0
      8774 MEMB     67       POPC     O13      O2L     -0.780000       15.9994           0
      8775 MEMB     67       POPC     O14      O2L     -0.780000       15.9994           0
      8776 MEMB     67       POPC     O12      OSLP    -0.570000       15.9994           0
      8777 MEMB     67       POPC     O11      OSLP    -0.570000       15.9994           0
      8778 MEMB     67       POPC     C1       CTL2    -0.800000E-01   12.0110           0
      8779 MEMB     67       POPC     HA       HAL2     0.900000E-01   1.00800           0
      8780 MEMB     67       POPC     HB       HAL2     0.900000E-01   1.00800           0
      8781 MEMB     67       POPC     C2       CTL1     0.170000       12.0110           0
      8782 MEMB     67       POPC     HS       HAL1     0.900000E-01   1.00800           0
      8783 MEMB     67       POPC     O21      OSL     -0.490000       15.9994           0
      8784 MEMB     67       POPC     C21      CL       0.900000       12.0110           0
      8785 MEMB     67       POPC     O22      OBL     -0.630000       15.9994           0
      8786 MEMB     67       POPC     C22      CTL2    -0.220000       12.0110           0
      8787 MEMB     67       POPC     H2R      HAL2     0.900000E-01   1.00800           0
      8788 MEMB     67       POPC     H2S      HAL2     0.900000E-01   1.00800           0
      8789 MEMB     67       POPC     C3       CTL2     0.800000E-01   12.0110           0
      8790 MEMB     67       POPC     HX       HAL2     0.900000E-01   1.00800           0
      8791 MEMB     67       POPC     HY       HAL2     0.900000E-01   1.00800           0
      8792 MEMB     67       POPC     O31      OSL     -0.490000       15.9994           0
      8793 MEMB     67       POPC     C31      CL       0.900000       12.0110           0
      8794 MEMB     67       POPC     O32      OBL     -0.630000       15.9994           0
      8795 MEMB     67       POPC     C32      CTL2    -0.220000       12.0110           0
      8796 MEMB     67       POPC     H2X      HAL2     0.900000E-01   1.00800           0
      8797 MEMB     67       POPC     H2Y      HAL2     0.900000E-01   1.00800           0
      8798 MEMB     67       POPC     C23      CTL2    -0.180000       12.0110           0
      8799 MEMB     67       POPC     H3R      HAL2     0.900000E-01   1.00800           0
      8800 MEMB     67       POPC     H3S      HAL2     0.900000E-01   1.00800           0
      8801 MEMB     67       POPC     C24      CTL2    -0.180000       12.0110           0
      8802 MEMB     67       POPC     H4R      HAL2     0.900000E-01   1.00800           0
      8803 MEMB     67       POPC     H4S      HAL2     0.900000E-01   1.00800           0
      8804 MEMB     67       POPC     C25      CTL2    -0.180000       12.0110           0
      8805 MEMB     67       POPC     H5R      HAL2     0.900000E-01   1.00800           0
      8806 MEMB     67       POPC     H5S      HAL2     0.900000E-01   1.00800           0
      8807 MEMB     67       POPC     C26      CTL2    -0.180000       12.0110           0
      8808 MEMB     67       POPC     H6R      HAL2     0.900000E-01   1.00800           0
      8809 MEMB     67       POPC     H6S      HAL2     0.900000E-01   1.00800           0
      8810 MEMB     67       POPC     C27      CTL2    -0.180000       12.0110           0
      8811 MEMB     67       POPC     H7R      HAL2     0.900000E-01   1.00800           0
      8812 MEMB     67       POPC     H7S      HAL2     0.900000E-01   1.00800           0
      8813 MEMB     67       POPC     C28      CTL2    -0.180000       12.0110           0
      8814 MEMB     67       POPC     H8R      HAL2     0.900000E-01   1.00800           0
      8815 MEMB     67       POPC     H8S      HAL2     0.900000E-01   1.00800           0
      8816 MEMB     67       POPC     C29      CEL1    -0.150000       12.0110           0
      8817 MEMB     67       POPC     H91      HEL1     0.150000       1.00800           0
      8818 MEMB     67       POPC     C210     CEL1    -0.150000       12.0110           0
      8819 MEMB     67       POPC     H101     HEL1     0.150000       1.00800           0
      8820 MEMB     67       POPC     C211     CTL2    -0.180000       12.0110           0
      8821 MEMB     67       POPC     H11R     HAL2     0.900000E-01   1.00800           0
      8822 MEMB     67       POPC     H11S     HAL2     0.900000E-01   1.00800           0
      8823 MEMB     67       POPC     C212     CTL2    -0.180000       12.0110           0
      8824 MEMB     67       POPC     H12R     HAL2     0.900000E-01   1.00800           0
      8825 MEMB     67       POPC     H12S     HAL2     0.900000E-01   1.00800           0
      8826 MEMB     67       POPC     C213     CTL2    -0.180000       12.0110           0
      8827 MEMB     67       POPC     H13R     HAL2     0.900000E-01   1.00800           0
      8828 MEMB     67       POPC     H13S     HAL2     0.900000E-01   1.00800           0
      8829 MEMB     67       POPC     C214     CTL2    -0.180000       12.0110           0
      8830 MEMB     67       POPC     H14R     HAL2     0.900000E-01   1.00800           0
      8831 MEMB     67       POPC     H14S     HAL2     0.900000E-01   1.00800           0
      8832 MEMB     67       POPC     C215     CTL2    -0.180000       12.0110           0
      8833 MEMB     67       POPC     H15R     HAL2     0.900000E-01   1.00800           0
      8834 MEMB     67       POPC     H15S     HAL2     0.900000E-01   1.00800           0
      8835 MEMB     67       POPC     C216     CTL2    -0.180000       12.0110           0
      8836 MEMB     67       POPC     H16R     HAL2     0.900000E-01   1.00800           0
      8837 MEMB     67       POPC     H16S     HAL2     0.900000E-01   1.00800           0
      8838 MEMB     67       POPC     C217     CTL2    -0.180000       12.0110           0
      8839 MEMB     67       POPC     H17R     HAL2     0.900000E-01   1.00800           0
      8840 MEMB     67       POPC     H17S     HAL2     0.900000E-01   1.00800           0
      8841 MEMB     67       POPC     C218     CTL3    -0.270000       12.0110           0
      8842 MEMB     67       POPC     H18R     HAL3     0.900000E-01   1.00800           0
      8843 MEMB     67       POPC     H18S     HAL3     0.900000E-01   1.00800           0
      8844 MEMB     67       POPC     H18T     HAL3     0.900000E-01   1.00800           0
      8845 MEMB     67       POPC     C33      CTL2    -0.180000       12.0110           0
      8846 MEMB     67       POPC     H3X      HAL2     0.900000E-01   1.00800           0
      8847 MEMB     67       POPC     H3Y      HAL2     0.900000E-01   1.00800           0
      8848 MEMB     67       POPC     C34      CTL2    -0.180000       12.0110           0
      8849 MEMB     67       POPC     H4X      HAL2     0.900000E-01   1.00800           0
      8850 MEMB     67       POPC     H4Y      HAL2     0.900000E-01   1.00800           0
      8851 MEMB     67       POPC     C35      CTL2    -0.180000       12.0110           0
      8852 MEMB     67       POPC     H5X      HAL2     0.900000E-01   1.00800           0
      8853 MEMB     67       POPC     H5Y      HAL2     0.900000E-01   1.00800           0
      8854 MEMB     67       POPC     C36      CTL2    -0.180000       12.0110           0
      8855 MEMB     67       POPC     H6X      HAL2     0.900000E-01   1.00800           0
      8856 MEMB     67       POPC     H6Y      HAL2     0.900000E-01   1.00800           0
      8857 MEMB     67       POPC     C37      CTL2    -0.180000       12.0110           0
      8858 MEMB     67       POPC     H7X      HAL2     0.900000E-01   1.00800           0
      8859 MEMB     67       POPC     H7Y      HAL2     0.900000E-01   1.00800           0
      8860 MEMB     67       POPC     C38      CTL2    -0.180000       12.0110           0
      8861 MEMB     67       POPC     H8X      HAL2     0.900000E-01   1.00800           0
      8862 MEMB     67       POPC     H8Y      HAL2     0.900000E-01   1.00800           0
      8863 MEMB     67       POPC     C39      CTL2    -0.180000       12.0110           0
      8864 MEMB     67       POPC     H9X      HAL2     0.900000E-01   1.00800           0
      8865 MEMB     67       POPC     H9Y      HAL2     0.900000E-01   1.00800           0
      8866 MEMB     67       POPC     C310     CTL2    -0.180000       12.0110           0
      8867 MEMB     67       POPC     H10X     HAL2     0.900000E-01   1.00800           0
      8868 MEMB     67       POPC     H10Y     HAL2     0.900000E-01   1.00800           0
      8869 MEMB     67       POPC     C311     CTL2    -0.180000       12.0110           0
      8870 MEMB     67       POPC     H11X     HAL2     0.900000E-01   1.00800           0
      8871 MEMB     67       POPC     H11Y     HAL2     0.900000E-01   1.00800           0
      8872 MEMB     67       POPC     C312     CTL2    -0.180000       12.0110           0
      8873 MEMB     67       POPC     H12X     HAL2     0.900000E-01   1.00800           0
      8874 MEMB     67       POPC     H12Y     HAL2     0.900000E-01   1.00800           0
      8875 MEMB     67       POPC     C313     CTL2    -0.180000       12.0110           0
      8876 MEMB     67       POPC     H13X     HAL2     0.900000E-01   1.00800           0
      8877 MEMB     67       POPC     H13Y     HAL2     0.900000E-01   1.00800           0
      8878 MEMB     67       POPC     C314     CTL2    -0.180000       12.0110           0
      8879 MEMB     67       POPC     H14X     HAL2     0.900000E-01   1.00800           0
      8880 MEMB     67       POPC     H14Y     HAL2     0.900000E-01   1.00800           0
      8881 MEMB     67       POPC     C315     CTL2    -0.180000       12.0110           0
      8882 MEMB     67       POPC     H15X     HAL2     0.900000E-01   1.00800           0
      8883 MEMB     67       POPC     H15Y     HAL2     0.900000E-01   1.00800           0
      8884 MEMB     67       POPC     C316     CTL3    -0.270000       12.0110           0
      8885 MEMB     67       POPC     H16X     HAL3     0.900000E-01   1.00800           0
      8886 MEMB     67       POPC     H16Y     HAL3     0.900000E-01   1.00800           0
      8887 MEMB     67       POPC     H16Z     HAL3     0.900000E-01   1.00800           0
      8888 MEMB     68       POPS     N        NH3L    -0.300000       14.0070           0
      8889 MEMB     68       POPS     HN1      HCL      0.330000       1.00800           0
      8890 MEMB     68       POPS     HN2      HCL      0.330000       1.00800           0
      8891 MEMB     68       POPS     HN3      HCL      0.330000       1.00800           0
      8892 MEMB     68       POPS     C12      CTL1     0.210000       12.0110           0
      8893 MEMB     68       POPS     H12A     HBL      0.100000       1.00800           0
      8894 MEMB     68       POPS     C13      CCL      0.340000       12.0110           0
      8895 MEMB     68       POPS     O13A     OCL     -0.670000       15.9994           0
      8896 MEMB     68       POPS     O13B     OCL     -0.670000       15.9994           0
      8897 MEMB     68       POPS     C11      CTL2    -0.800000E-01   12.0110           0
      8898 MEMB     68       POPS     H11A     HAL2     0.900000E-01   1.00800           0
      8899 MEMB     68       POPS     H11B     HAL2     0.900000E-01   1.00800           0
      8900 MEMB     68       POPS     P        PL        1.50000       30.9740           0
      8901 MEMB     68       POPS     O13      O2L     -0.780000       15.9994           0
      8902 MEMB     68       POPS     O14      O2L     -0.780000       15.9994           0
      8903 MEMB     68       POPS     O12      OSLP    -0.570000       15.9994           0
      8904 MEMB     68       POPS     O11      OSLP    -0.570000       15.9994           0
      8905 MEMB     68       POPS     C1       CTL2    -0.800000E-01   12.0110           0
      8906 MEMB     68       POPS     HA       HAL2     0.900000E-01   1.00800           0
      8907 MEMB     68       POPS     HB       HAL2     0.900000E-01   1.00800           0
      8908 MEMB     68       POPS     C2       CTL1     0.170000       12.0110           0
      8909 MEMB     68       POPS     HS       HAL1     0.900000E-01   1.00800           0
      8910 MEMB     68       POPS     O21      OSL     -0.490000       15.9994           0
      8911 MEMB     68       POPS     C21      CL       0.900000       12.0110           0
      8912 MEMB     68       POPS     O22      OBL     -0.630000       15.9994           0
      8913 MEMB     68       POPS     C22      CTL2    -0.220000       12.0110           0
      8914 MEMB     68       POPS     H2R      HAL2     0.900000E-01   1.00800           0
      8915 MEMB     68       POPS     H2S      HAL2     0.900000E-01   1.00800           0
      8916 MEMB     68       POPS     C3       CTL2     0.800000E-01   12.0110           0
      8917 MEMB     68       POPS     HX       HAL2     0.900000E-01   1.00800           0
      8918 MEMB     68       POPS     HY       HAL2     0.900000E-01   1.00800           0
      8919 MEMB     68       POPS     O31      OSL     -0.490000       15.9994           0
      8920 MEMB     68       POPS     C31      CL       0.900000       12.0110           0
      8921 MEMB     68       POPS     O32      OBL     -0.630000       15.9994           0
      8922 MEMB     68       POPS     C32      CTL2    -0.220000       12.0110           0
      8923 MEMB     68       POPS     H2X      HAL2     0.900000E-01   1.00800           0
      8924 MEMB     68       POPS     H2Y      HAL2     0.900000E-01   1.00800           0
      8925 MEMB     68       POPS     C23      CTL2    -0.180000       12.0110           0
      8926 MEMB     68       POPS     H3R      HAL2     0.900000E-01   1.00800           0
      8927 MEMB     68       POPS     H3S      HAL2     0.900000E-01   1.00800           0
      8928 MEMB     68       POPS     C24      CTL2    -0.180000       12.0110           0
      8929 MEMB     68       POPS     H4R      HAL2     0.900000E-01   1.00800           0
      8930 MEMB     68       POPS     H4S      HAL2     0.900000E-01   1.00800           0
      8931 MEMB     68       POPS     C25      CTL2    -0.180000       12.0110           0
      8932 MEMB     68       POPS     H5R      HAL2     0.900000E-01   1.00800           0
      8933 MEMB     68       POPS     H5S      HAL2     0.900000E-01   1.00800           0
      8934 MEMB     68       POPS     C26      CTL2    -0.180000       12.0110           0
      8935 MEMB     68       POPS     H6R      HAL2     0.900000E-01   1.00800           0
      8936 MEMB     68       POPS     H6S      HAL2     0.900000E-01   1.00800           0
      8937 MEMB     68       POPS     C27      CTL2    -0.180000       12.0110           0
      8938 MEMB     68       POPS     H7R      HAL2     0.900000E-01   1.00800           0
      8939 MEMB     68       POPS     H7S      HAL2     0.900000E-01   1.00800           0
      8940 MEMB     68       POPS     C28      CTL2    -0.180000       12.0110           0
      8941 MEMB     68       POPS     H8R      HAL2     0.900000E-01   1.00800           0
      8942 MEMB     68       POPS     H8S      HAL2     0.900000E-01   1.00800           0
      8943 MEMB     68       POPS     C29      CEL1    -0.150000       12.0110           0
      8944 MEMB     68       POPS     H91      HEL1     0.150000       1.00800           0
      8945 MEMB     68       POPS     C210     CEL1    -0.150000       12.0110           0
      8946 MEMB     68       POPS     H101     HEL1     0.150000       1.00800           0
      8947 MEMB     68       POPS     C211     CTL2    -0.180000       12.0110           0
      8948 MEMB     68       POPS     H11R     HAL2     0.900000E-01   1.00800           0
      8949 MEMB     68       POPS     H11S     HAL2     0.900000E-01   1.00800           0
      8950 MEMB     68       POPS     C212     CTL2    -0.180000       12.0110           0
      8951 MEMB     68       POPS     H12R     HAL2     0.900000E-01   1.00800           0
      8952 MEMB     68       POPS     H12S     HAL2     0.900000E-01   1.00800           0
      8953 MEMB     68       POPS     C213     CTL2    -0.180000       12.0110           0
      8954 MEMB     68       POPS     H13R     HAL2     0.900000E-01   1.00800           0
      8955 MEMB     68       POPS     H13S     HAL2     0.900000E-01   1.00800           0
      8956 MEMB     68       POPS     C214     CTL2    -0.180000       12.0110           0
      8957 MEMB     68       POPS     H14R     HAL2     0.900000E-01   1.00800           0
      8958 MEMB     68       POPS     H14S     HAL2     0.900000E-01   1.00800           0
      8959 MEMB     68       POPS     C215     CTL2    -0.180000       12.0110           0
      8960 MEMB     68       POPS     H15R     HAL2     0.900000E-01   1.00800           0
      8961 MEMB     68       POPS     H15S     HAL2     0.900000E-01   1.00800           0
      8962 MEMB     68       POPS     C216     CTL2    -0.180000       12.0110           0
      8963 MEMB     68       POPS     H16R     HAL2     0.900000E-01   1.00800           0
      8964 MEMB     68       POPS     H16S     HAL2     0.900000E-01   1.00800           0
      8965 MEMB     68       POPS     C217     CTL2    -0.180000       12.0110           0
      8966 MEMB     68       POPS     H17R     HAL2     0.900000E-01   1.00800           0
      8967 MEMB     68       POPS     H17S     HAL2     0.900000E-01   1.00800           0
      8968 MEMB     68       POPS     C218     CTL3    -0.270000       12.0110           0
      8969 MEMB     68       POPS     H18R     HAL3     0.900000E-01   1.00800           0
      8970 MEMB     68       POPS     H18S     HAL3     0.900000E-01   1.00800           0
      8971 MEMB     68       POPS     H18T     HAL3     0.900000E-01   1.00800           0
      8972 MEMB     68       POPS     C33      CTL2    -0.180000       12.0110           0
      8973 MEMB     68       POPS     H3X      HAL2     0.900000E-01   1.00800           0
      8974 MEMB     68       POPS     H3Y      HAL2     0.900000E-01   1.00800           0
      8975 MEMB     68       POPS     C34      CTL2    -0.180000       12.0110           0
      8976 MEMB     68       POPS     H4X      HAL2     0.900000E-01   1.00800           0
      8977 MEMB     68       POPS     H4Y      HAL2     0.900000E-01   1.00800           0
      8978 MEMB     68       POPS     C35      CTL2    -0.180000       12.0110           0
      8979 MEMB     68       POPS     H5X      HAL2     0.900000E-01   1.00800           0
      8980 MEMB     68       POPS     H5Y      HAL2     0.900000E-01   1.00800           0
      8981 MEMB     68       POPS     C36      CTL2    -0.180000       12.0110           0
      8982 MEMB     68       POPS     H6X      HAL2     0.900000E-01   1.00800           0
      8983 MEMB     68       POPS     H6Y      HAL2     0.900000E-01   1.00800           0
      8984 MEMB     68       POPS     C37      CTL2    -0.180000       12.0110           0
      8985 MEMB     68       POPS     H7X      HAL2     0.900000E-01   1.00800           0
      8986 MEMB     68       POPS     H7Y      HAL2     0.900000E-01   1.00800           0
      8987 MEMB     68       POPS     C38      CTL2    -0.180000       12.0110           0
      8988 MEMB     68       POPS     H8X      HAL2     0.900000E-01   1.00800           0
      8989 MEMB     68       POPS     H8Y      HAL2     0.900000E-01   1.00800           0
      8990 MEMB     68       POPS     C39      CTL2    -0.180000       12.0110           0
      8991 MEMB     68       POPS     H9X      HAL2     0.900000E-01   1.00800           0
      8992 MEMB     68       POPS     H9Y      HAL2     0.900000E-01   1.00800           0
      8993 MEMB     68       POPS     C310     CTL2    -0.180000       12.0110           0
      8994 MEMB     68       POPS     H10X     HAL2     0.900000E-01   1.00800           0
      8995 MEMB     68       POPS     H10Y     HAL2     0.900000E-01   1.00800           0
      8996 MEMB     68       POPS     C311     CTL2    -0.180000       12.0110           0
      8997 MEMB     68       POPS     H11X     HAL2     0.900000E-01   1.00800           0
      8998 MEMB     68       POPS     H11Y     HAL2     0.900000E-01   1.00800           0
      8999 MEMB     68       POPS     C312     CTL2    -0.180000       12.0110           0
      9000 MEMB     68       POPS     H12X     HAL2     0.900000E-01   1.00800           0
      9001 MEMB     68       POPS     H12Y     HAL2     0.900000E-01   1.00800           0
      9002 MEMB     68       POPS     C313     CTL2    -0.180000       12.0110           0
      9003 MEMB     68       POPS     H13X     HAL2     0.900000E-01   1.00800           0
      9004 MEMB     68       POPS     H13Y     HAL2     0.900000E-01   1.00800           0
      9005 MEMB     68       POPS     C314     CTL2    -0.180000       12.0110           0
      9006 MEMB     68       POPS     H14X     HAL2     0.900000E-01   1.00800           0
      9007 MEMB     68       POPS     H14Y     HAL2     0.900000E-01   1.00800           0
      9008 MEMB     68       POPS     C315     CTL2    -0.180000       12.0110           0
      9009 MEMB     68       POPS     H15X     HAL2     0.900000E-01   1.00800           0
      9010 MEMB     68       POPS     H15Y     HAL2     0.900000E-01   1.00800           0
      9011 MEMB     68       POPS     C316     CTL3    -0.270000       12.0110           0
      9012 MEMB     68       POPS     H16X     HAL3     0.900000E-01   1.00800           0
      9013 MEMB     68       POPS     H16Y     HAL3     0.900000E-01   1.00800           0
      9014 MEMB     68       POPS     H16Z     HAL3     0.900000E-01   1.00800           0
      9015 MEMB     69       POPS     N        NH3L    -0.300000       14.0070           0
      9016 MEMB     69       POPS     HN1      HCL      0.330000       1.00800           0
      9017 MEMB     69       POPS     HN2      HCL      0.330000       1.00800           0
      9018 MEMB     69       POPS     HN3      HCL      0.330000       1.00800           0
      9019 MEMB     69       POPS     C12      CTL1     0.210000       12.0110           0
      9020 MEMB     69       POPS     H12A     HBL      0.100000       1.00800           0
      9021 MEMB     69       POPS     C13      CCL      0.340000       12.0110           0
      9022 MEMB     69       POPS     O13A     OCL     -0.670000       15.9994           0
      9023 MEMB     69       POPS     O13B     OCL     -0.670000       15.9994           0
      9024 MEMB     69       POPS     C11      CTL2    -0.800000E-01   12.0110           0
      9025 MEMB     69       POPS     H11A     HAL2     0.900000E-01   1.00800           0
      9026 MEMB     69       POPS     H11B     HAL2     0.900000E-01   1.00800           0
      9027 MEMB     69       POPS     P        PL        1.50000       30.9740           0
      9028 MEMB     69       POPS     O13      O2L     -0.780000       15.9994           0
      9029 MEMB     69       POPS     O14      O2L     -0.780000       15.9994           0
      9030 MEMB     69       POPS     O12      OSLP    -0.570000       15.9994           0
      9031 MEMB     69       POPS     O11      OSLP    -0.570000       15.9994           0
      9032 MEMB     69       POPS     C1       CTL2    -0.800000E-01   12.0110           0
      9033 MEMB     69       POPS     HA       HAL2     0.900000E-01   1.00800           0
      9034 MEMB     69       POPS     HB       HAL2     0.900000E-01   1.00800           0
      9035 MEMB     69       POPS     C2       CTL1     0.170000       12.0110           0
      9036 MEMB     69       POPS     HS       HAL1     0.900000E-01   1.00800           0
      9037 MEMB     69       POPS     O21      OSL     -0.490000       15.9994           0
      9038 MEMB     69       POPS     C21      CL       0.900000       12.0110           0
      9039 MEMB     69       POPS     O22      OBL     -0.630000       15.9994           0
      9040 MEMB     69       POPS     C22      CTL2    -0.220000       12.0110           0
      9041 MEMB     69       POPS     H2R      HAL2     0.900000E-01   1.00800           0
      9042 MEMB     69       POPS     H2S      HAL2     0.900000E-01   1.00800           0
      9043 MEMB     69       POPS     C3       CTL2     0.800000E-01   12.0110           0
      9044 MEMB     69       POPS     HX       HAL2     0.900000E-01   1.00800           0
      9045 MEMB     69       POPS     HY       HAL2     0.900000E-01   1.00800           0
      9046 MEMB     69       POPS     O31      OSL     -0.490000       15.9994           0
      9047 MEMB     69       POPS     C31      CL       0.900000       12.0110           0
      9048 MEMB     69       POPS     O32      OBL     -0.630000       15.9994           0
      9049 MEMB     69       POPS     C32      CTL2    -0.220000       12.0110           0
      9050 MEMB     69       POPS     H2X      HAL2     0.900000E-01   1.00800           0
      9051 MEMB     69       POPS     H2Y      HAL2     0.900000E-01   1.00800           0
      9052 MEMB     69       POPS     C23      CTL2    -0.180000       12.0110           0
      9053 MEMB     69       POPS     H3R      HAL2     0.900000E-01   1.00800           0
      9054 MEMB     69       POPS     H3S      HAL2     0.900000E-01   1.00800           0
      9055 MEMB     69       POPS     C24      CTL2    -0.180000       12.0110           0
      9056 MEMB     69       POPS     H4R      HAL2     0.900000E-01   1.00800           0
      9057 MEMB     69       POPS     H4S      HAL2     0.900000E-01   1.00800           0
      9058 MEMB     69       POPS     C25      CTL2    -0.180000       12.0110           0
      9059 MEMB     69       POPS     H5R      HAL2     0.900000E-01   1.00800           0
      9060 MEMB     69       POPS     H5S      HAL2     0.900000E-01   1.00800           0
      9061 MEMB     69       POPS     C26      CTL2    -0.180000       12.0110           0
      9062 MEMB     69       POPS     H6R      HAL2     0.900000E-01   1.00800           0
      9063 MEMB     69       POPS     H6S      HAL2     0.900000E-01   1.00800           0
      9064 MEMB     69       POPS     C27      CTL2    -0.180000       12.0110           0
      9065 MEMB     69       POPS     H7R      HAL2     0.900000E-01   1.00800           0
      9066 MEMB     69       POPS     H7S      HAL2     0.900000E-01   1.00800           0
      9067 MEMB     69       POPS     C28      CTL2    -0.180000       12.0110           0
      9068 MEMB     69       POPS     H8R      HAL2     0.900000E-01   1.00800           0
      9069 MEMB     69       POPS     H8S      HAL2     0.900000E-01   1.00800           0
      9070 MEMB     69       POPS     C29      CEL1    -0.150000       12.0110           0
      9071 MEMB     69       POPS     H91      HEL1     0.150000       1.00800           0
      9072 MEMB     69       POPS     C210     CEL1    -0.150000       12.0110           0
      9073 MEMB     69       POPS     H101     HEL1     0.150000       1.00800           0
      9074 MEMB     69       POPS     C211     CTL2    -0.180000       12.0110           0
      9075 MEMB     69       POPS     H11R     HAL2     0.900000E-01   1.00800           0
      9076 MEMB     69       POPS     H11S     HAL2     0.900000E-01   1.00800           0
      9077 MEMB     69       POPS     C212     CTL2    -0.180000       12.0110           0
      9078 MEMB     69       POPS     H12R     HAL2     0.900000E-01   1.00800           0
      9079 MEMB     69       POPS     H12S     HAL2     0.900000E-01   1.00800           0
      9080 MEMB     69       POPS     C213     CTL2    -0.180000       12.0110           0
      9081 MEMB     69       POPS     H13R     HAL2     0.900000E-01   1.00800           0
      9082 MEMB     69       POPS     H13S     HAL2     0.900000E-01   1.00800           0
      9083 MEMB     69       POPS     C214     CTL2    -0.180000       12.0110           0
      9084 MEMB     69       POPS     H14R     HAL2     0.900000E-01   1.00800           0
      9085 MEMB     69       POPS     H14S     HAL2     0.900000E-01   1.00800           0
      9086 MEMB     69       POPS     C215     CTL2    -0.180000       12.0110           0
      9087 MEMB     69       POPS     H15R     HAL2     0.900000E-01   1.00800           0
      9088 MEMB     69       POPS     H15S     HAL2     0.900000E-01   1.00800           0
      9089 MEMB     69       POPS     C216     CTL2    -0.180000       12.0110           0
      9090 MEMB     69       POPS     H16R     HAL2     0.900000E-01   1.00800           0
      9091 MEMB     69       POPS     H16S     HAL2     0.900000E-01   1.00800           0
      9092 MEMB     69       POPS     C217     CTL2    -0.180000       12.0110           0
      9093 MEMB     69       POPS     H17R     HAL2     0.900000E-01   1.00800           0
      9094 MEMB     69       POPS     H17S     HAL2     0.900000E-01   1.00800           0
      9095 MEMB     69       POPS     C218     CTL3    -0.270000       12.0110           0
      9096 MEMB     69       POPS     H18R     HAL3     0.900000E-01   1.00800           0
      9097 MEMB     69       POPS     H18S     HAL3     0.900000E-01   1.00800           0
      9098 MEMB     69       POPS     H18T     HAL3     0.900000E-01   1.00800           0
      9099 MEMB     69       POPS     C33      CTL2    -0.180000       12.0110           0
      9100 MEMB     69       POPS     H3X      HAL2     0.900000E-01   1.00800           0
      9101 MEMB     69       POPS     H3Y      HAL2     0.900000E-01   1.00800           0
      9102 MEMB     69       POPS     C34      CTL2    -0.180000       12.0110           0
      9103 MEMB     69       POPS     H4X      HAL2     0.900000E-01   1.00800           0
      9104 MEMB     69       POPS     H4Y      HAL2     0.900000E-01   1.00800           0
      9105 MEMB     69       POPS     C35      CTL2    -0.180000       12.0110           0
      9106 MEMB     69       POPS     H5X      HAL2     0.900000E-01   1.00800           0
      9107 MEMB     69       POPS     H5Y      HAL2     0.900000E-01   1.00800           0
      9108 MEMB     69       POPS     C36      CTL2    -0.180000       12.0110           0
      9109 MEMB     69       POPS     H6X      HAL2     0.900000E-01   1.00800           0
      9110 MEMB     69       POPS     H6Y      HAL2     0.900000E-01   1.00800           0
      9111 MEMB     69       POPS     C37      CTL2    -0.180000       12.0110           0
      9112 MEMB     69       POPS     H7X      HAL2     0.900000E-01   1.00800           0
      9113 MEMB     69       POPS     H7Y      HAL2     0.900000E-01   1.00800           0
      9114 MEMB     69       POPS     C38      CTL2    -0.180000       12.0110           0
      9115 MEMB     69       POPS     H8X      HAL2     0.900000E-01   1.00800           0
      9116 MEMB     69       POPS     H8Y      HAL2     0.900000E-01   1.00800           0
      9117 MEMB     69       POPS     C39      CTL2    -0.180000       12.0110           0
      9118 MEMB     69       POPS     H9X      HAL2     0.900000E-01   1.00800           0
      9119 MEMB     69       POPS     H9Y      HAL2     0.900000E-01   1.00800           0
      9120 MEMB     69       POPS     C310     CTL2    -0.180000       12.0110           0
      9121 MEMB     69       POPS     H10X     HAL2     0.900000E-01   1.00800           0
      9122 MEMB     69       POPS     H10Y     HAL2     0.900000E-01   1.00800           0
      9123 MEMB     69       POPS     C311     CTL2    -0.180000       12.0110           0
      9124 MEMB     69       POPS     H11X     HAL2     0.900000E-01   1.00800           0
      9125 MEMB     69       POPS     H11Y     HAL2     0.900000E-01   1.00800           0
      9126 MEMB     69       POPS     C312     CTL2    -0.180000       12.0110           0
      9127 MEMB     69       POPS     H12X     HAL2     0.900000E-01   1.00800           0
      9128 MEMB     69       POPS     H12Y     HAL2     0.900000E-01   1.00800           0
      9129 MEMB     69       POPS     C313     CTL2    -0.180000       12.0110           0
      9130 MEMB     69       POPS     H13X     HAL2     0.900000E-01   1.00800           0
      9131 MEMB     69       POPS     H13Y     HAL2     0.900000E-01   1.00800           0
      9132 MEMB     69       POPS     C314     CTL2    -0.180000       12.0110           0
      9133 MEMB     69       POPS     H14X     HAL2     0.900000E-01   1.00800           0
      9134 MEMB     69       POPS     H14Y     HAL2     0.900000E-01   1.00800           0
      9135 MEMB     69       POPS     C315     CTL2    -0.180000       12.0110           0
      9136 MEMB     69       POPS     H15X     HAL2     0.900000E-01   1.00800           0
      9137 MEMB     69       POPS     H15Y     HAL2     0.900000E-01   1.00800           0
      9138 MEMB     69       POPS     C316     CTL3    -0.270000       12.0110           0
      9139 MEMB     69       POPS     H16X     HAL3     0.900000E-01   1.00800           0
      9140 MEMB     69       POPS     H16Y     HAL3     0.900000E-01   1.00800           0
      9141 MEMB     69       POPS     H16Z     HAL3     0.900000E-01   1.00800           0
      9142 MEMB     70       POPC     N        NTL     -0.600000       14.0070           0
      9143 MEMB     70       POPC     C12      CTL2    -0.100000       12.0110           0
      9144 MEMB     70       POPC     H12A     HL       0.250000       1.00800           0
      9145 MEMB     70       POPC     H12B     HL       0.250000       1.00800           0
      9146 MEMB     70       POPC     C13      CTL5    -0.350000       12.0110           0
      9147 MEMB     70       POPC     H13A     HL       0.250000       1.00800           0
      9148 MEMB     70       POPC     H13B     HL       0.250000       1.00800           0
      9149 MEMB     70       POPC     H13C     HL       0.250000       1.00800           0
      9150 MEMB     70       POPC     C14      CTL5    -0.350000       12.0110           0
      9151 MEMB     70       POPC     H14A     HL       0.250000       1.00800           0
      9152 MEMB     70       POPC     H14B     HL       0.250000       1.00800           0
      9153 MEMB     70       POPC     H14C     HL       0.250000       1.00800           0
      9154 MEMB     70       POPC     C15      CTL5    -0.350000       12.0110           0
      9155 MEMB     70       POPC     H15A     HL       0.250000       1.00800           0
      9156 MEMB     70       POPC     H15B     HL       0.250000       1.00800           0
      9157 MEMB     70       POPC     H15C     HL       0.250000       1.00800           0
      9158 MEMB     70       POPC     C11      CTL2    -0.800000E-01   12.0110           0
      9159 MEMB     70       POPC     H11A     HAL2     0.900000E-01   1.00800           0
      9160 MEMB     70       POPC     H11B     HAL2     0.900000E-01   1.00800           0
      9161 MEMB     70       POPC     P        PL        1.50000       30.9740           0
      9162 MEMB     70       POPC     O13      O2L     -0.780000       15.9994           0
      9163 MEMB     70       POPC     O14      O2L     -0.780000       15.9994           0
      9164 MEMB     70       POPC     O12      OSLP    -0.570000       15.9994           0
      9165 MEMB     70       POPC     O11      OSLP    -0.570000       15.9994           0
      9166 MEMB     70       POPC     C1       CTL2    -0.800000E-01   12.0110           0
      9167 MEMB     70       POPC     HA       HAL2     0.900000E-01   1.00800           0
      9168 MEMB     70       POPC     HB       HAL2     0.900000E-01   1.00800           0
      9169 MEMB     70       POPC     C2       CTL1     0.170000       12.0110           0
      9170 MEMB     70       POPC     HS       HAL1     0.900000E-01   1.00800           0
      9171 MEMB     70       POPC     O21      OSL     -0.490000       15.9994           0
      9172 MEMB     70       POPC     C21      CL       0.900000       12.0110           0
      9173 MEMB     70       POPC     O22      OBL     -0.630000       15.9994           0
      9174 MEMB     70       POPC     C22      CTL2    -0.220000       12.0110           0
      9175 MEMB     70       POPC     H2R      HAL2     0.900000E-01   1.00800           0
      9176 MEMB     70       POPC     H2S      HAL2     0.900000E-01   1.00800           0
      9177 MEMB     70       POPC     C3       CTL2     0.800000E-01   12.0110           0
      9178 MEMB     70       POPC     HX       HAL2     0.900000E-01   1.00800           0
      9179 MEMB     70       POPC     HY       HAL2     0.900000E-01   1.00800           0
      9180 MEMB     70       POPC     O31      OSL     -0.490000       15.9994           0
      9181 MEMB     70       POPC     C31      CL       0.900000       12.0110           0
      9182 MEMB     70       POPC     O32      OBL     -0.630000       15.9994           0
      9183 MEMB     70       POPC     C32      CTL2    -0.220000       12.0110           0
      9184 MEMB     70       POPC     H2X      HAL2     0.900000E-01   1.00800           0
      9185 MEMB     70       POPC     H2Y      HAL2     0.900000E-01   1.00800           0
      9186 MEMB     70       POPC     C23      CTL2    -0.180000       12.0110           0
      9187 MEMB     70       POPC     H3R      HAL2     0.900000E-01   1.00800           0
      9188 MEMB     70       POPC     H3S      HAL2     0.900000E-01   1.00800           0
      9189 MEMB     70       POPC     C24      CTL2    -0.180000       12.0110           0
      9190 MEMB     70       POPC     H4R      HAL2     0.900000E-01   1.00800           0
      9191 MEMB     70       POPC     H4S      HAL2     0.900000E-01   1.00800           0
      9192 MEMB     70       POPC     C25      CTL2    -0.180000       12.0110           0
      9193 MEMB     70       POPC     H5R      HAL2     0.900000E-01   1.00800           0
      9194 MEMB     70       POPC     H5S      HAL2     0.900000E-01   1.00800           0
      9195 MEMB     70       POPC     C26      CTL2    -0.180000       12.0110           0
      9196 MEMB     70       POPC     H6R      HAL2     0.900000E-01   1.00800           0
      9197 MEMB     70       POPC     H6S      HAL2     0.900000E-01   1.00800           0
      9198 MEMB     70       POPC     C27      CTL2    -0.180000       12.0110           0
      9199 MEMB     70       POPC     H7R      HAL2     0.900000E-01   1.00800           0
      9200 MEMB     70       POPC     H7S      HAL2     0.900000E-01   1.00800           0
      9201 MEMB     70       POPC     C28      CTL2    -0.180000       12.0110           0
      9202 MEMB     70       POPC     H8R      HAL2     0.900000E-01   1.00800           0
      9203 MEMB     70       POPC     H8S      HAL2     0.900000E-01   1.00800           0
      9204 MEMB     70       POPC     C29      CEL1    -0.150000       12.0110           0
      9205 MEMB     70       POPC     H91      HEL1     0.150000       1.00800           0
      9206 MEMB     70       POPC     C210     CEL1    -0.150000       12.0110           0
      9207 MEMB     70       POPC     H101     HEL1     0.150000       1.00800           0
      9208 MEMB     70       POPC     C211     CTL2    -0.180000       12.0110           0
      9209 MEMB     70       POPC     H11R     HAL2     0.900000E-01   1.00800           0
      9210 MEMB     70       POPC     H11S     HAL2     0.900000E-01   1.00800           0
      9211 MEMB     70       POPC     C212     CTL2    -0.180000       12.0110           0
      9212 MEMB     70       POPC     H12R     HAL2     0.900000E-01   1.00800           0
      9213 MEMB     70       POPC     H12S     HAL2     0.900000E-01   1.00800           0
      9214 MEMB     70       POPC     C213     CTL2    -0.180000       12.0110           0
      9215 MEMB     70       POPC     H13R     HAL2     0.900000E-01   1.00800           0
      9216 MEMB     70       POPC     H13S     HAL2     0.900000E-01   1.00800           0
      9217 MEMB     70       POPC     C214     CTL2    -0.180000       12.0110           0
      9218 MEMB     70       POPC     H14R     HAL2     0.900000E-01   1.00800           0
      9219 MEMB     70       POPC     H14S     HAL2     0.900000E-01   1.00800           0
      9220 MEMB     70       POPC     C215     CTL2    -0.180000       12.0110           0
      9221 MEMB     70       POPC     H15R     HAL2     0.900000E-01   1.00800           0
      9222 MEMB     70       POPC     H15S     HAL2     0.900000E-01   1.00800           0
      9223 MEMB     70       POPC     C216     CTL2    -0.180000       12.0110           0
      9224 MEMB     70       POPC     H16R     HAL2     0.900000E-01   1.00800           0
      9225 MEMB     70       POPC     H16S     HAL2     0.900000E-01   1.00800           0
      9226 MEMB     70       POPC     C217     CTL2    -0.180000       12.0110           0
      9227 MEMB     70       POPC     H17R     HAL2     0.900000E-01   1.00800           0
      9228 MEMB     70       POPC     H17S     HAL2     0.900000E-01   1.00800           0
      9229 MEMB     70       POPC     C218     CTL3    -0.270000       12.0110           0
      9230 MEMB     70       POPC     H18R     HAL3     0.900000E-01   1.00800           0
      9231 MEMB     70       POPC     H18S     HAL3     0.900000E-01   1.00800           0
      9232 MEMB     70       POPC     H18T     HAL3     0.900000E-01   1.00800           0
      9233 MEMB     70       POPC     C33      CTL2    -0.180000       12.0110           0
      9234 MEMB     70       POPC     H3X      HAL2     0.900000E-01   1.00800           0
      9235 MEMB     70       POPC     H3Y      HAL2     0.900000E-01   1.00800           0
      9236 MEMB     70       POPC     C34      CTL2    -0.180000       12.0110           0
      9237 MEMB     70       POPC     H4X      HAL2     0.900000E-01   1.00800           0
      9238 MEMB     70       POPC     H4Y      HAL2     0.900000E-01   1.00800           0
      9239 MEMB     70       POPC     C35      CTL2    -0.180000       12.0110           0
      9240 MEMB     70       POPC     H5X      HAL2     0.900000E-01   1.00800           0
      9241 MEMB     70       POPC     H5Y      HAL2     0.900000E-01   1.00800           0
      9242 MEMB     70       POPC     C36      CTL2    -0.180000       12.0110           0
      9243 MEMB     70       POPC     H6X      HAL2     0.900000E-01   1.00800           0
      9244 MEMB     70       POPC     H6Y      HAL2     0.900000E-01   1.00800           0
      9245 MEMB     70       POPC     C37      CTL2    -0.180000       12.0110           0
      9246 MEMB     70       POPC     H7X      HAL2     0.900000E-01   1.00800           0
      9247 MEMB     70       POPC     H7Y      HAL2     0.900000E-01   1.00800           0
      9248 MEMB     70       POPC     C38      CTL2    -0.180000       12.0110           0
      9249 MEMB     70       POPC     H8X      HAL2     0.900000E-01   1.00800           0
      9250 MEMB     70       POPC     H8Y      HAL2     0.900000E-01   1.00800           0
      9251 MEMB     70       POPC     C39      CTL2    -0.180000       12.0110           0
      9252 MEMB     70       POPC     H9X      HAL2     0.900000E-01   1.00800           0
      9253 MEMB     70       POPC     H9Y      HAL2     0.900000E-01   1.00800           0
      9254 MEMB     70       POPC     C310     CTL2    -0.180000       12.0110           0
      9255 MEMB     70       POPC     H10X     HAL2     0.900000E-01   1.00800           0
      9256 MEMB     70       POPC     H10Y     HAL2     0.900000E-01   1.00800           0
      9257 MEMB     70       POPC     C311     CTL2    -0.180000       12.0110           0
      9258 MEMB     70       POPC     H11X     HAL2     0.900000E-01   1.00800           0
      9259 MEMB     70       POPC     H11Y     HAL2     0.900000E-01   1.00800           0
      9260 MEMB     70       POPC     C312     CTL2    -0.180000       12.0110           0
      9261 MEMB     70       POPC     H12X     HAL2     0.900000E-01   1.00800           0
      9262 MEMB     70       POPC     H12Y     HAL2     0.900000E-01   1.00800           0
      9263 MEMB     70       POPC     C313     CTL2    -0.180000       12.0110           0
      9264 MEMB     70       POPC     H13X     HAL2     0.900000E-01   1.00800           0
      9265 MEMB     70       POPC     H13Y     HAL2     0.900000E-01   1.00800           0
      9266 MEMB     70       POPC     C314     CTL2    -0.180000       12.0110           0
      9267 MEMB     70       POPC     H14X     HAL2     0.900000E-01   1.00800           0
      9268 MEMB     70       POPC     H14Y     HAL2     0.900000E-01   1.00800           0
      9269 MEMB     70       POPC     C315     CTL2    -0.180000       12.0110           0
      9270 MEMB     70       POPC     H15X     HAL2     0.900000E-01   1.00800           0
      9271 MEMB     70       POPC     H15Y     HAL2     0.900000E-01   1.00800           0
      9272 MEMB     70       POPC     C316     CTL3    -0.270000       12.0110           0
      9273 MEMB     70       POPC     H16X     HAL3     0.900000E-01   1.00800           0
      9274 MEMB     70       POPC     H16Y     HAL3     0.900000E-01   1.00800           0
      9275 MEMB     70       POPC     H16Z     HAL3     0.900000E-01   1.00800           0
      9276 MEMB     71       POPC     N        NTL     -0.600000       14.0070           0
      9277 MEMB     71       POPC     C12      CTL2    -0.100000       12.0110           0
      9278 MEMB     71       POPC     H12A     HL       0.250000       1.00800           0
      9279 MEMB     71       POPC     H12B     HL       0.250000       1.00800           0
      9280 MEMB     71       POPC     C13      CTL5    -0.350000       12.0110           0
      9281 MEMB     71       POPC     H13A     HL       0.250000       1.00800           0
      9282 MEMB     71       POPC     H13B     HL       0.250000       1.00800           0
      9283 MEMB     71       POPC     H13C     HL       0.250000       1.00800           0
      9284 MEMB     71       POPC     C14      CTL5    -0.350000       12.0110           0
      9285 MEMB     71       POPC     H14A     HL       0.250000       1.00800           0
      9286 MEMB     71       POPC     H14B     HL       0.250000       1.00800           0
      9287 MEMB     71       POPC     H14C     HL       0.250000       1.00800           0
      9288 MEMB     71       POPC     C15      CTL5    -0.350000       12.0110           0
      9289 MEMB     71       POPC     H15A     HL       0.250000       1.00800           0
      9290 MEMB     71       POPC     H15B     HL       0.250000       1.00800           0
      9291 MEMB     71       POPC     H15C     HL       0.250000       1.00800           0
      9292 MEMB     71       POPC     C11      CTL2    -0.800000E-01   12.0110           0
      9293 MEMB     71       POPC     H11A     HAL2     0.900000E-01   1.00800           0
      9294 MEMB     71       POPC     H11B     HAL2     0.900000E-01   1.00800           0
      9295 MEMB     71       POPC     P        PL        1.50000       30.9740           0
      9296 MEMB     71       POPC     O13      O2L     -0.780000       15.9994           0
      9297 MEMB     71       POPC     O14      O2L     -0.780000       15.9994           0
      9298 MEMB     71       POPC     O12      OSLP    -0.570000       15.9994           0
      9299 MEMB     71       POPC     O11      OSLP    -0.570000       15.9994           0
      9300 MEMB     71       POPC     C1       CTL2    -0.800000E-01   12.0110           0
      9301 MEMB     71       POPC     HA       HAL2     0.900000E-01   1.00800           0
      9302 MEMB     71       POPC     HB       HAL2     0.900000E-01   1.00800           0
      9303 MEMB     71       POPC     C2       CTL1     0.170000       12.0110           0
      9304 MEMB     71       POPC     HS       HAL1     0.900000E-01   1.00800           0
      9305 MEMB     71       POPC     O21      OSL     -0.490000       15.9994           0
      9306 MEMB     71       POPC     C21      CL       0.900000       12.0110           0
      9307 MEMB     71       POPC     O22      OBL     -0.630000       15.9994           0
      9308 MEMB     71       POPC     C22      CTL2    -0.220000       12.0110           0
      9309 MEMB     71       POPC     H2R      HAL2     0.900000E-01   1.00800           0
      9310 MEMB     71       POPC     H2S      HAL2     0.900000E-01   1.00800           0
      9311 MEMB     71       POPC     C3       CTL2     0.800000E-01   12.0110           0
      9312 MEMB     71       POPC     HX       HAL2     0.900000E-01   1.00800           0
      9313 MEMB     71       POPC     HY       HAL2     0.900000E-01   1.00800           0
      9314 MEMB     71       POPC     O31      OSL     -0.490000       15.9994           0
      9315 MEMB     71       POPC     C31      CL       0.900000       12.0110           0
      9316 MEMB     71       POPC     O32      OBL     -0.630000       15.9994           0
      9317 MEMB     71       POPC     C32      CTL2    -0.220000       12.0110           0
      9318 MEMB     71       POPC     H2X      HAL2     0.900000E-01   1.00800           0
      9319 MEMB     71       POPC     H2Y      HAL2     0.900000E-01   1.00800           0
      9320 MEMB     71       POPC     C23      CTL2    -0.180000       12.0110           0
      9321 MEMB     71       POPC     H3R      HAL2     0.900000E-01   1.00800           0
      9322 MEMB     71       POPC     H3S      HAL2     0.900000E-01   1.00800           0
      9323 MEMB     71       POPC     C24      CTL2    -0.180000       12.0110           0
      9324 MEMB     71       POPC     H4R      HAL2     0.900000E-01   1.00800           0
      9325 MEMB     71       POPC     H4S      HAL2     0.900000E-01   1.00800           0
      9326 MEMB     71       POPC     C25      CTL2    -0.180000       12.0110           0
      9327 MEMB     71       POPC     H5R      HAL2     0.900000E-01   1.00800           0
      9328 MEMB     71       POPC     H5S      HAL2     0.900000E-01   1.00800           0
      9329 MEMB     71       POPC     C26      CTL2    -0.180000       12.0110           0
      9330 MEMB     71       POPC     H6R      HAL2     0.900000E-01   1.00800           0
      9331 MEMB     71       POPC     H6S      HAL2     0.900000E-01   1.00800           0
      9332 MEMB     71       POPC     C27      CTL2    -0.180000       12.0110           0
      9333 MEMB     71       POPC     H7R      HAL2     0.900000E-01   1.00800           0
      9334 MEMB     71       POPC     H7S      HAL2     0.900000E-01   1.00800           0
      9335 MEMB     71       POPC     C28      CTL2    -0.180000       12.0110           0
      9336 MEMB     71       POPC     H8R      HAL2     0.900000E-01   1.00800           0
      9337 MEMB     71       POPC     H8S      HAL2     0.900000E-01   1.00800           0
      9338 MEMB     71       POPC     C29      CEL1    -0.150000       12.0110           0
      9339 MEMB     71       POPC     H91      HEL1     0.150000       1.00800           0
      9340 MEMB     71       POPC     C210     CEL1    -0.150000       12.0110           0
      9341 MEMB     71       POPC     H101     HEL1     0.150000       1.00800           0
      9342 MEMB     71       POPC     C211     CTL2    -0.180000       12.0110           0
      9343 MEMB     71       POPC     H11R     HAL2     0.900000E-01   1.00800           0
      9344 MEMB     71       POPC     H11S     HAL2     0.900000E-01   1.00800           0
      9345 MEMB     71       POPC     C212     CTL2    -0.180000       12.0110           0
      9346 MEMB     71       POPC     H12R     HAL2     0.900000E-01   1.00800           0
      9347 MEMB     71       POPC     H12S     HAL2     0.900000E-01   1.00800           0
      9348 MEMB     71       POPC     C213     CTL2    -0.180000       12.0110           0
      9349 MEMB     71       POPC     H13R     HAL2     0.900000E-01   1.00800           0
      9350 MEMB     71       POPC     H13S     HAL2     0.900000E-01   1.00800           0
      9351 MEMB     71       POPC     C214     CTL2    -0.180000       12.0110           0
      9352 MEMB     71       POPC     H14R     HAL2     0.900000E-01   1.00800           0
      9353 MEMB     71       POPC     H14S     HAL2     0.900000E-01   1.00800           0
      9354 MEMB     71       POPC     C215     CTL2    -0.180000       12.0110           0
      9355 MEMB     71       POPC     H15R     HAL2     0.900000E-01   1.00800           0
      9356 MEMB     71       POPC     H15S     HAL2     0.900000E-01   1.00800           0
      9357 MEMB     71       POPC     C216     CTL2    -0.180000       12.0110           0
      9358 MEMB     71       POPC     H16R     HAL2     0.900000E-01   1.00800           0
      9359 MEMB     71       POPC     H16S     HAL2     0.900000E-01   1.00800           0
      9360 MEMB     71       POPC     C217     CTL2    -0.180000       12.0110           0
      9361 MEMB     71       POPC     H17R     HAL2     0.900000E-01   1.00800           0
      9362 MEMB     71       POPC     H17S     HAL2     0.900000E-01   1.00800           0
      9363 MEMB     71       POPC     C218     CTL3    -0.270000       12.0110           0
      9364 MEMB     71       POPC     H18R     HAL3     0.900000E-01   1.00800           0
      9365 MEMB     71       POPC     H18S     HAL3     0.900000E-01   1.00800           0
      9366 MEMB     71       POPC     H18T     HAL3     0.900000E-01   1.00800           0
      9367 MEMB     71       POPC     C33      CTL2    -0.180000       12.0110           0
      9368 MEMB     71       POPC     H3X      HAL2     0.900000E-01   1.00800           0
      9369 MEMB     71       POPC     H3Y      HAL2     0.900000E-01   1.00800           0
      9370 MEMB     71       POPC     C34      CTL2    -0.180000       12.0110           0
      9371 MEMB     71       POPC     H4X      HAL2     0.900000E-01   1.00800           0
      9372 MEMB     71       POPC     H4Y      HAL2     0.900000E-01   1.00800           0
      9373 MEMB     71       POPC     C35      CTL2    -0.180000       12.0110           0
      9374 MEMB     71       POPC     H5X      HAL2     0.900000E-01   1.00800           0
      9375 MEMB     71       POPC     H5Y      HAL2     0.900000E-01   1.00800           0
      9376 MEMB     71       POPC     C36      CTL2    -0.180000       12.0110           0
      9377 MEMB     71       POPC     H6X      HAL2     0.900000E-01   1.00800           0
      9378 MEMB     71       POPC     H6Y      HAL2     0.900000E-01   1.00800           0
      9379 MEMB     71       POPC     C37      CTL2    -0.180000       12.0110           0
      9380 MEMB     71       POPC     H7X      HAL2     0.900000E-01   1.00800           0
      9381 MEMB     71       POPC     H7Y      HAL2     0.900000E-01   1.00800           0
      9382 MEMB     71       POPC     C38      CTL2    -0.180000       12.0110           0
      9383 MEMB     71       POPC     H8X      HAL2     0.900000E-01   1.00800           0
      9384 MEMB     71       POPC     H8Y      HAL2     0.900000E-01   1.00800           0
      9385 MEMB     71       POPC     C39      CTL2    -0.180000       12.0110           0
      9386 MEMB     71       POPC     H9X      HAL2     0.900000E-01   1.00800           0
      9387 MEMB     71       POPC     H9Y      HAL2     0.900000E-01   1.00800           0
      9388 MEMB     71       POPC     C310     CTL2    -0.180000       12.0110           0
      9389 MEMB     71       POPC     H10X     HAL2     0.900000E-01   1.00800           0
      9390 MEMB     71       POPC     H10Y     HAL2     0.900000E-01   1.00800           0
      9391 MEMB     71       POPC     C311     CTL2    -0.180000       12.0110           0
      9392 MEMB     71       POPC     H11X     HAL2     0.900000E-01   1.00800           0
      9393 MEMB     71       POPC     H11Y     HAL2     0.900000E-01   1.00800           0
      9394 MEMB     71       POPC     C312     CTL2    -0.180000       12.0110           0
      9395 MEMB     71       POPC     H12X     HAL2     0.900000E-01   1.00800           0
      9396 MEMB     71       POPC     H12Y     HAL2     0.900000E-01   1.00800           0
      9397 MEMB     71       POPC     C313     CTL2    -0.180000       12.0110           0
      9398 MEMB     71       POPC     H13X     HAL2     0.900000E-01   1.00800           0
      9399 MEMB     71       POPC     H13Y     HAL2     0.900000E-01   1.00800           0
      9400 MEMB     71       POPC     C314     CTL2    -0.180000       12.0110           0
      9401 MEMB     71       POPC     H14X     HAL2     0.900000E-01   1.00800           0
      9402 MEMB     71       POPC     H14Y     HAL2     0.900000E-01   1.00800           0
      9403 MEMB     71       POPC     C315     CTL2    -0.180000       12.0110           0
      9404 MEMB     71       POPC     H15X     HAL2     0.900000E-01   1.00800           0
      9405 MEMB     71       POPC     H15Y     HAL2     0.900000E-01   1.00800           0
      9406 MEMB     71       POPC     C316     CTL3    -0.270000       12.0110           0
      9407 MEMB     71       POPC     H16X     HAL3     0.900000E-01   1.00800           0
      9408 MEMB     71       POPC     H16Y     HAL3     0.900000E-01   1.00800           0
      9409 MEMB     71       POPC     H16Z     HAL3     0.900000E-01   1.00800           0
      9410 MEMB     72       POPC     N        NTL     -0.600000       14.0070           0
      9411 MEMB     72       POPC     C12      CTL2    -0.100000       12.0110           0
      9412 MEMB     72       POPC     H12A     HL       0.250000       1.00800           0
      9413 MEMB     72       POPC     H12B     HL       0.250000       1.00800           0
      9414 MEMB     72       POPC     C13      CTL5    -0.350000       12.0110           0
      9415 MEMB     72       POPC     H13A     HL       0.250000       1.00800           0
      9416 MEMB     72       POPC     H13B     HL       0.250000       1.00800           0
      9417 MEMB     72       POPC     H13C     HL       0.250000       1.00800           0
      9418 MEMB     72       POPC     C14      CTL5    -0.350000       12.0110           0
      9419 MEMB     72       POPC     H14A     HL       0.250000       1.00800           0
      9420 MEMB     72       POPC     H14B     HL       0.250000       1.00800           0
      9421 MEMB     72       POPC     H14C     HL       0.250000       1.00800           0
      9422 MEMB     72       POPC     C15      CTL5    -0.350000       12.0110           0
      9423 MEMB     72       POPC     H15A     HL       0.250000       1.00800           0
      9424 MEMB     72       POPC     H15B     HL       0.250000       1.00800           0
      9425 MEMB     72       POPC     H15C     HL       0.250000       1.00800           0
      9426 MEMB     72       POPC     C11      CTL2    -0.800000E-01   12.0110           0
      9427 MEMB     72       POPC     H11A     HAL2     0.900000E-01   1.00800           0
      9428 MEMB     72       POPC     H11B     HAL2     0.900000E-01   1.00800           0
      9429 MEMB     72       POPC     P        PL        1.50000       30.9740           0
      9430 MEMB     72       POPC     O13      O2L     -0.780000       15.9994           0
      9431 MEMB     72       POPC     O14      O2L     -0.780000       15.9994           0
      9432 MEMB     72       POPC     O12      OSLP    -0.570000       15.9994           0
      9433 MEMB     72       POPC     O11      OSLP    -0.570000       15.9994           0
      9434 MEMB     72       POPC     C1       CTL2    -0.800000E-01   12.0110           0
      9435 MEMB     72       POPC     HA       HAL2     0.900000E-01   1.00800           0
      9436 MEMB     72       POPC     HB       HAL2     0.900000E-01   1.00800           0
      9437 MEMB     72       POPC     C2       CTL1     0.170000       12.0110           0
      9438 MEMB     72       POPC     HS       HAL1     0.900000E-01   1.00800           0
      9439 MEMB     72       POPC     O21      OSL     -0.490000       15.9994           0
      9440 MEMB     72       POPC     C21      CL       0.900000       12.0110           0
      9441 MEMB     72       POPC     O22      OBL     -0.630000       15.9994           0
      9442 MEMB     72       POPC     C22      CTL2    -0.220000       12.0110           0
      9443 MEMB     72       POPC     H2R      HAL2     0.900000E-01   1.00800           0
      9444 MEMB     72       POPC     H2S      HAL2     0.900000E-01   1.00800           0
      9445 MEMB     72       POPC     C3       CTL2     0.800000E-01   12.0110           0
      9446 MEMB     72       POPC     HX       HAL2     0.900000E-01   1.00800           0
      9447 MEMB     72       POPC     HY       HAL2     0.900000E-01   1.00800           0
      9448 MEMB     72       POPC     O31      OSL     -0.490000       15.9994           0
      9449 MEMB     72       POPC     C31      CL       0.900000       12.0110           0
      9450 MEMB     72       POPC     O32      OBL     -0.630000       15.9994           0
      9451 MEMB     72       POPC     C32      CTL2    -0.220000       12.0110           0
      9452 MEMB     72       POPC     H2X      HAL2     0.900000E-01   1.00800           0
      9453 MEMB     72       POPC     H2Y      HAL2     0.900000E-01   1.00800           0
      9454 MEMB     72       POPC     C23      CTL2    -0.180000       12.0110           0
      9455 MEMB     72       POPC     H3R      HAL2     0.900000E-01   1.00800           0
      9456 MEMB     72       POPC     H3S      HAL2     0.900000E-01   1.00800           0
      9457 MEMB     72       POPC     C24      CTL2    -0.180000       12.0110           0
      9458 MEMB     72       POPC     H4R      HAL2     0.900000E-01   1.00800           0
      9459 MEMB     72       POPC     H4S      HAL2     0.900000E-01   1.00800           0
      9460 MEMB     72       POPC     C25      CTL2    -0.180000       12.0110           0
      9461 MEMB     72       POPC     H5R      HAL2     0.900000E-01   1.00800           0
      9462 MEMB     72       POPC     H5S      HAL2     0.900000E-01   1.00800           0
      9463 MEMB     72       POPC     C26      CTL2    -0.180000       12.0110           0
      9464 MEMB     72       POPC     H6R      HAL2     0.900000E-01   1.00800           0
      9465 MEMB     72       POPC     H6S      HAL2     0.900000E-01   1.00800           0
      9466 MEMB     72       POPC     C27      CTL2    -0.180000       12.0110           0
      9467 MEMB     72       POPC     H7R      HAL2     0.900000E-01   1.00800           0
      9468 MEMB     72       POPC     H7S      HAL2     0.900000E-01   1.00800           0
      9469 MEMB     72       POPC     C28      CTL2    -0.180000       12.0110           0
      9470 MEMB     72       POPC     H8R      HAL2     0.900000E-01   1.00800           0
      9471 MEMB     72       POPC     H8S      HAL2     0.900000E-01   1.00800           0
      9472 MEMB     72       POPC     C29      CEL1    -0.150000       12.0110           0
      9473 MEMB     72       POPC     H91      HEL1     0.150000       1.00800           0
      9474 MEMB     72       POPC     C210     CEL1    -0.150000       12.0110           0
      9475 MEMB     72       POPC     H101     HEL1     0.150000       1.00800           0
      9476 MEMB     72       POPC     C211     CTL2    -0.180000       12.0110           0
      9477 MEMB     72       POPC     H11R     HAL2     0.900000E-01   1.00800           0
      9478 MEMB     72       POPC     H11S     HAL2     0.900000E-01   1.00800           0
      9479 MEMB     72       POPC     C212     CTL2    -0.180000       12.0110           0
      9480 MEMB     72       POPC     H12R     HAL2     0.900000E-01   1.00800           0
      9481 MEMB     72       POPC     H12S     HAL2     0.900000E-01   1.00800           0
      9482 MEMB     72       POPC     C213     CTL2    -0.180000       12.0110           0
      9483 MEMB     72       POPC     H13R     HAL2     0.900000E-01   1.00800           0
      9484 MEMB     72       POPC     H13S     HAL2     0.900000E-01   1.00800           0
      9485 MEMB     72       POPC     C214     CTL2    -0.180000       12.0110           0
      9486 MEMB     72       POPC     H14R     HAL2     0.900000E-01   1.00800           0
      9487 MEMB     72       POPC     H14S     HAL2     0.900000E-01   1.00800           0
      9488 MEMB     72       POPC     C215     CTL2    -0.180000       12.0110           0
      9489 MEMB     72       POPC     H15R     HAL2     0.900000E-01   1.00800           0
      9490 MEMB     72       POPC     H15S     HAL2     0.900000E-01   1.00800           0
      9491 MEMB     72       POPC     C216     CTL2    -0.180000       12.0110           0
      9492 MEMB     72       POPC     H16R     HAL2     0.900000E-01   1.00800           0
      9493 MEMB     72       POPC     H16S     HAL2     0.900000E-01   1.00800           0
      9494 MEMB     72       POPC     C217     CTL2    -0.180000       12.0110           0
      9495 MEMB     72       POPC     H17R     HAL2     0.900000E-01   1.00800           0
      9496 MEMB     72       POPC     H17S     HAL2     0.900000E-01   1.00800           0
      9497 MEMB     72       POPC     C218     CTL3    -0.270000       12.0110           0
      9498 MEMB     72       POPC     H18R     HAL3     0.900000E-01   1.00800           0
      9499 MEMB     72       POPC     H18S     HAL3     0.900000E-01   1.00800           0
      9500 MEMB     72       POPC     H18T     HAL3     0.900000E-01   1.00800           0
      9501 MEMB     72       POPC     C33      CTL2    -0.180000       12.0110           0
      9502 MEMB     72       POPC     H3X      HAL2     0.900000E-01   1.00800           0
      9503 MEMB     72       POPC     H3Y      HAL2     0.900000E-01   1.00800           0
      9504 MEMB     72       POPC     C34      CTL2    -0.180000       12.0110           0
      9505 MEMB     72       POPC     H4X      HAL2     0.900000E-01   1.00800           0
      9506 MEMB     72       POPC     H4Y      HAL2     0.900000E-01   1.00800           0
      9507 MEMB     72       POPC     C35      CTL2    -0.180000       12.0110           0
      9508 MEMB     72       POPC     H5X      HAL2     0.900000E-01   1.00800           0
      9509 MEMB     72       POPC     H5Y      HAL2     0.900000E-01   1.00800           0
      9510 MEMB     72       POPC     C36      CTL2    -0.180000       12.0110           0
      9511 MEMB     72       POPC     H6X      HAL2     0.900000E-01   1.00800           0
      9512 MEMB     72       POPC     H6Y      HAL2     0.900000E-01   1.00800           0
      9513 MEMB     72       POPC     C37      CTL2    -0.180000       12.0110           0
      9514 MEMB     72       POPC     H7X      HAL2     0.900000E-01   1.00800           0
      9515 MEMB     72       POPC     H7Y      HAL2     0.900000E-01   1.00800           0
      9516 MEMB     72       POPC     C38      CTL2    -0.180000       12.0110           0
      9517 MEMB     72       POPC     H8X      HAL2     0.900000E-01   1.00800           0
      9518 MEMB     72       POPC     H8Y      HAL2     0.900000E-01   1.00800           0
      9519 MEMB     72       POPC     C39      CTL2    -0.180000       12.0110           0
      9520 MEMB     72       POPC     H9X      HAL2     0.900000E-01   1.00800           0
      9521 MEMB     72       POPC     H9Y      HAL2     0.900000E-01   1.00800           0
      9522 MEMB     72       POPC     C310     CTL2    -0.180000       12.0110           0
      9523 MEMB     72       POPC     H10X     HAL2     0.900000E-01   1.00800           0
      9524 MEMB     72       POPC     H10Y     HAL2     0.900000E-01   1.00800           0
      9525 MEMB     72       POPC     C311     CTL2    -0.180000       12.0110           0
      9526 MEMB     72       POPC     H11X     HAL2     0.900000E-01   1.00800           0
      9527 MEMB     72       POPC     H11Y     HAL2     0.900000E-01   1.00800           0
      9528 MEMB     72       POPC     C312     CTL2    -0.180000       12.0110           0
      9529 MEMB     72       POPC     H12X     HAL2     0.900000E-01   1.00800           0
      9530 MEMB     72       POPC     H12Y     HAL2     0.900000E-01   1.00800           0
      9531 MEMB     72       POPC     C313     CTL2    -0.180000       12.0110           0
      9532 MEMB     72       POPC     H13X     HAL2     0.900000E-01   1.00800           0
      9533 MEMB     72       POPC     H13Y     HAL2     0.900000E-01   1.00800           0
      9534 MEMB     72       POPC     C314     CTL2    -0.180000       12.0110           0
      9535 MEMB     72       POPC     H14X     HAL2     0.900000E-01   1.00800           0
      9536 MEMB     72       POPC     H14Y     HAL2     0.900000E-01   1.00800           0
      9537 MEMB     72       POPC     C315     CTL2    -0.180000       12.0110           0
      9538 MEMB     72       POPC     H15X     HAL2     0.900000E-01   1.00800           0
      9539 MEMB     72       POPC     H15Y     HAL2     0.900000E-01   1.00800           0
      9540 MEMB     72       POPC     C316     CTL3    -0.270000       12.0110           0
      9541 MEMB     72       POPC     H16X     HAL3     0.900000E-01   1.00800           0
      9542 MEMB     72       POPC     H16Y     HAL3     0.900000E-01   1.00800           0
      9543 MEMB     72       POPC     H16Z     HAL3     0.900000E-01   1.00800           0
      9544 MEMB     73       POPC     N        NTL     -0.600000       14.0070           0
      9545 MEMB     73       POPC     C12      CTL2    -0.100000       12.0110           0
      9546 MEMB     73       POPC     H12A     HL       0.250000       1.00800           0
      9547 MEMB     73       POPC     H12B     HL       0.250000       1.00800           0
      9548 MEMB     73       POPC     C13      CTL5    -0.350000       12.0110           0
      9549 MEMB     73       POPC     H13A     HL       0.250000       1.00800           0
      9550 MEMB     73       POPC     H13B     HL       0.250000       1.00800           0
      9551 MEMB     73       POPC     H13C     HL       0.250000       1.00800           0
      9552 MEMB     73       POPC     C14      CTL5    -0.350000       12.0110           0
      9553 MEMB     73       POPC     H14A     HL       0.250000       1.00800           0
      9554 MEMB     73       POPC     H14B     HL       0.250000       1.00800           0
      9555 MEMB     73       POPC     H14C     HL       0.250000       1.00800           0
      9556 MEMB     73       POPC     C15      CTL5    -0.350000       12.0110           0
      9557 MEMB     73       POPC     H15A     HL       0.250000       1.00800           0
      9558 MEMB     73       POPC     H15B     HL       0.250000       1.00800           0
      9559 MEMB     73       POPC     H15C     HL       0.250000       1.00800           0
      9560 MEMB     73       POPC     C11      CTL2    -0.800000E-01   12.0110           0
      9561 MEMB     73       POPC     H11A     HAL2     0.900000E-01   1.00800           0
      9562 MEMB     73       POPC     H11B     HAL2     0.900000E-01   1.00800           0
      9563 MEMB     73       POPC     P        PL        1.50000       30.9740           0
      9564 MEMB     73       POPC     O13      O2L     -0.780000       15.9994           0
      9565 MEMB     73       POPC     O14      O2L     -0.780000       15.9994           0
      9566 MEMB     73       POPC     O12      OSLP    -0.570000       15.9994           0
      9567 MEMB     73       POPC     O11      OSLP    -0.570000       15.9994           0
      9568 MEMB     73       POPC     C1       CTL2    -0.800000E-01   12.0110           0
      9569 MEMB     73       POPC     HA       HAL2     0.900000E-01   1.00800           0
      9570 MEMB     73       POPC     HB       HAL2     0.900000E-01   1.00800           0
      9571 MEMB     73       POPC     C2       CTL1     0.170000       12.0110           0
      9572 MEMB     73       POPC     HS       HAL1     0.900000E-01   1.00800           0
      9573 MEMB     73       POPC     O21      OSL     -0.490000       15.9994           0
      9574 MEMB     73       POPC     C21      CL       0.900000       12.0110           0
      9575 MEMB     73       POPC     O22      OBL     -0.630000       15.9994           0
      9576 MEMB     73       POPC     C22      CTL2    -0.220000       12.0110           0
      9577 MEMB     73       POPC     H2R      HAL2     0.900000E-01   1.00800           0
      9578 MEMB     73       POPC     H2S      HAL2     0.900000E-01   1.00800           0
      9579 MEMB     73       POPC     C3       CTL2     0.800000E-01   12.0110           0
      9580 MEMB     73       POPC     HX       HAL2     0.900000E-01   1.00800           0
      9581 MEMB     73       POPC     HY       HAL2     0.900000E-01   1.00800           0
      9582 MEMB     73       POPC     O31      OSL     -0.490000       15.9994           0
      9583 MEMB     73       POPC     C31      CL       0.900000       12.0110           0
      9584 MEMB     73       POPC     O32      OBL     -0.630000       15.9994           0
      9585 MEMB     73       POPC     C32      CTL2    -0.220000       12.0110           0
      9586 MEMB     73       POPC     H2X      HAL2     0.900000E-01   1.00800           0
      9587 MEMB     73       POPC     H2Y      HAL2     0.900000E-01   1.00800           0
      9588 MEMB     73       POPC     C23      CTL2    -0.180000       12.0110           0
      9589 MEMB     73       POPC     H3R      HAL2     0.900000E-01   1.00800           0
      9590 MEMB     73       POPC     H3S      HAL2     0.900000E-01   1.00800           0
      9591 MEMB     73       POPC     C24      CTL2    -0.180000       12.0110           0
      9592 MEMB     73       POPC     H4R      HAL2     0.900000E-01   1.00800           0
      9593 MEMB     73       POPC     H4S      HAL2     0.900000E-01   1.00800           0
      9594 MEMB     73       POPC     C25      CTL2    -0.180000       12.0110           0
      9595 MEMB     73       POPC     H5R      HAL2     0.900000E-01   1.00800           0
      9596 MEMB     73       POPC     H5S      HAL2     0.900000E-01   1.00800           0
      9597 MEMB     73       POPC     C26      CTL2    -0.180000       12.0110           0
      9598 MEMB     73       POPC     H6R      HAL2     0.900000E-01   1.00800           0
      9599 MEMB     73       POPC     H6S      HAL2     0.900000E-01   1.00800           0
      9600 MEMB     73       POPC     C27      CTL2    -0.180000       12.0110           0
      9601 MEMB     73       POPC     H7R      HAL2     0.900000E-01   1.00800           0
      9602 MEMB     73       POPC     H7S      HAL2     0.900000E-01   1.00800           0
      9603 MEMB     73       POPC     C28      CTL2    -0.180000       12.0110           0
      9604 MEMB     73       POPC     H8R      HAL2     0.900000E-01   1.00800           0
      9605 MEMB     73       POPC     H8S      HAL2     0.900000E-01   1.00800           0
      9606 MEMB     73       POPC     C29      CEL1    -0.150000       12.0110           0
      9607 MEMB     73       POPC     H91      HEL1     0.150000       1.00800           0
      9608 MEMB     73       POPC     C210     CEL1    -0.150000       12.0110           0
      9609 MEMB     73       POPC     H101     HEL1     0.150000       1.00800           0
      9610 MEMB     73       POPC     C211     CTL2    -0.180000       12.0110           0
      9611 MEMB     73       POPC     H11R     HAL2     0.900000E-01   1.00800           0
      9612 MEMB     73       POPC     H11S     HAL2     0.900000E-01   1.00800           0
      9613 MEMB     73       POPC     C212     CTL2    -0.180000       12.0110           0
      9614 MEMB     73       POPC     H12R     HAL2     0.900000E-01   1.00800           0
      9615 MEMB     73       POPC     H12S     HAL2     0.900000E-01   1.00800           0
      9616 MEMB     73       POPC     C213     CTL2    -0.180000       12.0110           0
      9617 MEMB     73       POPC     H13R     HAL2     0.900000E-01   1.00800           0
      9618 MEMB     73       POPC     H13S     HAL2     0.900000E-01   1.00800           0
      9619 MEMB     73       POPC     C214     CTL2    -0.180000       12.0110           0
      9620 MEMB     73       POPC     H14R     HAL2     0.900000E-01   1.00800           0
      9621 MEMB     73       POPC     H14S     HAL2     0.900000E-01   1.00800           0
      9622 MEMB     73       POPC     C215     CTL2    -0.180000       12.0110           0
      9623 MEMB     73       POPC     H15R     HAL2     0.900000E-01   1.00800           0
      9624 MEMB     73       POPC     H15S     HAL2     0.900000E-01   1.00800           0
      9625 MEMB     73       POPC     C216     CTL2    -0.180000       12.0110           0
      9626 MEMB     73       POPC     H16R     HAL2     0.900000E-01   1.00800           0
      9627 MEMB     73       POPC     H16S     HAL2     0.900000E-01   1.00800           0
      9628 MEMB     73       POPC     C217     CTL2    -0.180000       12.0110           0
      9629 MEMB     73       POPC     H17R     HAL2     0.900000E-01   1.00800           0
      9630 MEMB     73       POPC     H17S     HAL2     0.900000E-01   1.00800           0
      9631 MEMB     73       POPC     C218     CTL3    -0.270000       12.0110           0
      9632 MEMB     73       POPC     H18R     HAL3     0.900000E-01   1.00800           0
      9633 MEMB     73       POPC     H18S     HAL3     0.900000E-01   1.00800           0
      9634 MEMB     73       POPC     H18T     HAL3     0.900000E-01   1.00800           0
      9635 MEMB     73       POPC     C33      CTL2    -0.180000       12.0110           0
      9636 MEMB     73       POPC     H3X      HAL2     0.900000E-01   1.00800           0
      9637 MEMB     73       POPC     H3Y      HAL2     0.900000E-01   1.00800           0
      9638 MEMB     73       POPC     C34      CTL2    -0.180000       12.0110           0
      9639 MEMB     73       POPC     H4X      HAL2     0.900000E-01   1.00800           0
      9640 MEMB     73       POPC     H4Y      HAL2     0.900000E-01   1.00800           0
      9641 MEMB     73       POPC     C35      CTL2    -0.180000       12.0110           0
      9642 MEMB     73       POPC     H5X      HAL2     0.900000E-01   1.00800           0
      9643 MEMB     73       POPC     H5Y      HAL2     0.900000E-01   1.00800           0
      9644 MEMB     73       POPC     C36      CTL2    -0.180000       12.0110           0
      9645 MEMB     73       POPC     H6X      HAL2     0.900000E-01   1.00800           0
      9646 MEMB     73       POPC     H6Y      HAL2     0.900000E-01   1.00800           0
      9647 MEMB     73       POPC     C37      CTL2    -0.180000       12.0110           0
      9648 MEMB     73       POPC     H7X      HAL2     0.900000E-01   1.00800           0
      9649 MEMB     73       POPC     H7Y      HAL2     0.900000E-01   1.00800           0
      9650 MEMB     73       POPC     C38      CTL2    -0.180000       12.0110           0
      9651 MEMB     73       POPC     H8X      HAL2     0.900000E-01   1.00800           0
      9652 MEMB     73       POPC     H8Y      HAL2     0.900000E-01   1.00800           0
      9653 MEMB     73       POPC     C39      CTL2    -0.180000       12.0110           0
      9654 MEMB     73       POPC     H9X      HAL2     0.900000E-01   1.00800           0
      9655 MEMB     73       POPC     H9Y      HAL2     0.900000E-01   1.00800           0
      9656 MEMB     73       POPC     C310     CTL2    -0.180000       12.0110           0
      9657 MEMB     73       POPC     H10X     HAL2     0.900000E-01   1.00800           0
      9658 MEMB     73       POPC     H10Y     HAL2     0.900000E-01   1.00800           0
      9659 MEMB     73       POPC     C311     CTL2    -0.180000       12.0110           0
      9660 MEMB     73       POPC     H11X     HAL2     0.900000E-01   1.00800           0
      9661 MEMB     73       POPC     H11Y     HAL2     0.900000E-01   1.00800           0
      9662 MEMB     73       POPC     C312     CTL2    -0.180000       12.0110           0
      9663 MEMB     73       POPC     H12X     HAL2     0.900000E-01   1.00800           0
      9664 MEMB     73       POPC     H12Y     HAL2     0.900000E-01   1.00800           0
      9665 MEMB     73       POPC     C313     CTL2    -0.180000       12.0110           0
      9666 MEMB     73       POPC     H13X     HAL2     0.900000E-01   1.00800           0
      9667 MEMB     73       POPC     H13Y     HAL2     0.900000E-01   1.00800           0
      9668 MEMB     73       POPC     C314     CTL2    -0.180000       12.0110           0
      9669 MEMB     73       POPC     H14X     HAL2     0.900000E-01   1.00800           0
      9670 MEMB     73       POPC     H14Y     HAL2     0.900000E-01   1.00800           0
      9671 MEMB     73       POPC     C315     CTL2    -0.180000       12.0110           0
      9672 MEMB     73       POPC     H15X     HAL2     0.900000E-01   1.00800           0
      9673 MEMB     73       POPC     H15Y     HAL2     0.900000E-01   1.00800           0
      9674 MEMB     73       POPC     C316     CTL3    -0.270000       12.0110           0
      9675 MEMB     73       POPC     H16X     HAL3     0.900000E-01   1.00800           0
      9676 MEMB     73       POPC     H16Y     HAL3     0.900000E-01   1.00800           0
      9677 MEMB     73       POPC     H16Z     HAL3     0.900000E-01   1.00800           0
      9678 MEMB     74       POPC     N        NTL     -0.600000       14.0070           0
      9679 MEMB     74       POPC     C12      CTL2    -0.100000       12.0110           0
      9680 MEMB     74       POPC     H12A     HL       0.250000       1.00800           0
      9681 MEMB     74       POPC     H12B     HL       0.250000       1.00800           0
      9682 MEMB     74       POPC     C13      CTL5    -0.350000       12.0110           0
      9683 MEMB     74       POPC     H13A     HL       0.250000       1.00800           0
      9684 MEMB     74       POPC     H13B     HL       0.250000       1.00800           0
      9685 MEMB     74       POPC     H13C     HL       0.250000       1.00800           0
      9686 MEMB     74       POPC     C14      CTL5    -0.350000       12.0110           0
      9687 MEMB     74       POPC     H14A     HL       0.250000       1.00800           0
      9688 MEMB     74       POPC     H14B     HL       0.250000       1.00800           0
      9689 MEMB     74       POPC     H14C     HL       0.250000       1.00800           0
      9690 MEMB     74       POPC     C15      CTL5    -0.350000       12.0110           0
      9691 MEMB     74       POPC     H15A     HL       0.250000       1.00800           0
      9692 MEMB     74       POPC     H15B     HL       0.250000       1.00800           0
      9693 MEMB     74       POPC     H15C     HL       0.250000       1.00800           0
      9694 MEMB     74       POPC     C11      CTL2    -0.800000E-01   12.0110           0
      9695 MEMB     74       POPC     H11A     HAL2     0.900000E-01   1.00800           0
      9696 MEMB     74       POPC     H11B     HAL2     0.900000E-01   1.00800           0
      9697 MEMB     74       POPC     P        PL        1.50000       30.9740           0
      9698 MEMB     74       POPC     O13      O2L     -0.780000       15.9994           0
      9699 MEMB     74       POPC     O14      O2L     -0.780000       15.9994           0
      9700 MEMB     74       POPC     O12      OSLP    -0.570000       15.9994           0
      9701 MEMB     74       POPC     O11      OSLP    -0.570000       15.9994           0
      9702 MEMB     74       POPC     C1       CTL2    -0.800000E-01   12.0110           0
      9703 MEMB     74       POPC     HA       HAL2     0.900000E-01   1.00800           0
      9704 MEMB     74       POPC     HB       HAL2     0.900000E-01   1.00800           0
      9705 MEMB     74       POPC     C2       CTL1     0.170000       12.0110           0
      9706 MEMB     74       POPC     HS       HAL1     0.900000E-01   1.00800           0
      9707 MEMB     74       POPC     O21      OSL     -0.490000       15.9994           0
      9708 MEMB     74       POPC     C21      CL       0.900000       12.0110           0
      9709 MEMB     74       POPC     O22      OBL     -0.630000       15.9994           0
      9710 MEMB     74       POPC     C22      CTL2    -0.220000       12.0110           0
      9711 MEMB     74       POPC     H2R      HAL2     0.900000E-01   1.00800           0
      9712 MEMB     74       POPC     H2S      HAL2     0.900000E-01   1.00800           0
      9713 MEMB     74       POPC     C3       CTL2     0.800000E-01   12.0110           0
      9714 MEMB     74       POPC     HX       HAL2     0.900000E-01   1.00800           0
      9715 MEMB     74       POPC     HY       HAL2     0.900000E-01   1.00800           0
      9716 MEMB     74       POPC     O31      OSL     -0.490000       15.9994           0
      9717 MEMB     74       POPC     C31      CL       0.900000       12.0110           0
      9718 MEMB     74       POPC     O32      OBL     -0.630000       15.9994           0
      9719 MEMB     74       POPC     C32      CTL2    -0.220000       12.0110           0
      9720 MEMB     74       POPC     H2X      HAL2     0.900000E-01   1.00800           0
      9721 MEMB     74       POPC     H2Y      HAL2     0.900000E-01   1.00800           0
      9722 MEMB     74       POPC     C23      CTL2    -0.180000       12.0110           0
      9723 MEMB     74       POPC     H3R      HAL2     0.900000E-01   1.00800           0
      9724 MEMB     74       POPC     H3S      HAL2     0.900000E-01   1.00800           0
      9725 MEMB     74       POPC     C24      CTL2    -0.180000       12.0110           0
      9726 MEMB     74       POPC     H4R      HAL2     0.900000E-01   1.00800           0
      9727 MEMB     74       POPC     H4S      HAL2     0.900000E-01   1.00800           0
      9728 MEMB     74       POPC     C25      CTL2    -0.180000       12.0110           0
      9729 MEMB     74       POPC     H5R      HAL2     0.900000E-01   1.00800           0
      9730 MEMB     74       POPC     H5S      HAL2     0.900000E-01   1.00800           0
      9731 MEMB     74       POPC     C26      CTL2    -0.180000       12.0110           0
      9732 MEMB     74       POPC     H6R      HAL2     0.900000E-01   1.00800           0
      9733 MEMB     74       POPC     H6S      HAL2     0.900000E-01   1.00800           0
      9734 MEMB     74       POPC     C27      CTL2    -0.180000       12.0110           0
      9735 MEMB     74       POPC     H7R      HAL2     0.900000E-01   1.00800           0
      9736 MEMB     74       POPC     H7S      HAL2     0.900000E-01   1.00800           0
      9737 MEMB     74       POPC     C28      CTL2    -0.180000       12.0110           0
      9738 MEMB     74       POPC     H8R      HAL2     0.900000E-01   1.00800           0
      9739 MEMB     74       POPC     H8S      HAL2     0.900000E-01   1.00800           0
      9740 MEMB     74       POPC     C29      CEL1    -0.150000       12.0110           0
      9741 MEMB     74       POPC     H91      HEL1     0.150000       1.00800           0
      9742 MEMB     74       POPC     C210     CEL1    -0.150000       12.0110           0
      9743 MEMB     74       POPC     H101     HEL1     0.150000       1.00800           0
      9744 MEMB     74       POPC     C211     CTL2    -0.180000       12.0110           0
      9745 MEMB     74       POPC     H11R     HAL2     0.900000E-01   1.00800           0
      9746 MEMB     74       POPC     H11S     HAL2     0.900000E-01   1.00800           0
      9747 MEMB     74       POPC     C212     CTL2    -0.180000       12.0110           0
      9748 MEMB     74       POPC     H12R     HAL2     0.900000E-01   1.00800           0
      9749 MEMB     74       POPC     H12S     HAL2     0.900000E-01   1.00800           0
      9750 MEMB     74       POPC     C213     CTL2    -0.180000       12.0110           0
      9751 MEMB     74       POPC     H13R     HAL2     0.900000E-01   1.00800           0
      9752 MEMB     74       POPC     H13S     HAL2     0.900000E-01   1.00800           0
      9753 MEMB     74       POPC     C214     CTL2    -0.180000       12.0110           0
      9754 MEMB     74       POPC     H14R     HAL2     0.900000E-01   1.00800           0
      9755 MEMB     74       POPC     H14S     HAL2     0.900000E-01   1.00800           0
      9756 MEMB     74       POPC     C215     CTL2    -0.180000       12.0110           0
      9757 MEMB     74       POPC     H15R     HAL2     0.900000E-01   1.00800           0
      9758 MEMB     74       POPC     H15S     HAL2     0.900000E-01   1.00800           0
      9759 MEMB     74       POPC     C216     CTL2    -0.180000       12.0110           0
      9760 MEMB     74       POPC     H16R     HAL2     0.900000E-01   1.00800           0
      9761 MEMB     74       POPC     H16S     HAL2     0.900000E-01   1.00800           0
      9762 MEMB     74       POPC     C217     CTL2    -0.180000       12.0110           0
      9763 MEMB     74       POPC     H17R     HAL2     0.900000E-01   1.00800           0
      9764 MEMB     74       POPC     H17S     HAL2     0.900000E-01   1.00800           0
      9765 MEMB     74       POPC     C218     CTL3    -0.270000       12.0110           0
      9766 MEMB     74       POPC     H18R     HAL3     0.900000E-01   1.00800           0
      9767 MEMB     74       POPC     H18S     HAL3     0.900000E-01   1.00800           0
      9768 MEMB     74       POPC     H18T     HAL3     0.900000E-01   1.00800           0
      9769 MEMB     74       POPC     C33      CTL2    -0.180000       12.0110           0
      9770 MEMB     74       POPC     H3X      HAL2     0.900000E-01   1.00800           0
      9771 MEMB     74       POPC     H3Y      HAL2     0.900000E-01   1.00800           0
      9772 MEMB     74       POPC     C34      CTL2    -0.180000       12.0110           0
      9773 MEMB     74       POPC     H4X      HAL2     0.900000E-01   1.00800           0
      9774 MEMB     74       POPC     H4Y      HAL2     0.900000E-01   1.00800           0
      9775 MEMB     74       POPC     C35      CTL2    -0.180000       12.0110           0
      9776 MEMB     74       POPC     H5X      HAL2     0.900000E-01   1.00800           0
      9777 MEMB     74       POPC     H5Y      HAL2     0.900000E-01   1.00800           0
      9778 MEMB     74       POPC     C36      CTL2    -0.180000       12.0110           0
      9779 MEMB     74       POPC     H6X      HAL2     0.900000E-01   1.00800           0
      9780 MEMB     74       POPC     H6Y      HAL2     0.900000E-01   1.00800           0
      9781 MEMB     74       POPC     C37      CTL2    -0.180000       12.0110           0
      9782 MEMB     74       POPC     H7X      HAL2     0.900000E-01   1.00800           0
      9783 MEMB     74       POPC     H7Y      HAL2     0.900000E-01   1.00800           0
      9784 MEMB     74       POPC     C38      CTL2    -0.180000       12.0110           0
      9785 MEMB     74       POPC     H8X      HAL2     0.900000E-01   1.00800           0
      9786 MEMB     74       POPC     H8Y      HAL2     0.900000E-01   1.00800           0
      9787 MEMB     74       POPC     C39      CTL2    -0.180000       12.0110           0
      9788 MEMB     74       POPC     H9X      HAL2     0.900000E-01   1.00800           0
      9789 MEMB     74       POPC     H9Y      HAL2     0.900000E-01   1.00800           0
      9790 MEMB     74       POPC     C310     CTL2    -0.180000       12.0110           0
      9791 MEMB     74       POPC     H10X     HAL2     0.900000E-01   1.00800           0
      9792 MEMB     74       POPC     H10Y     HAL2     0.900000E-01   1.00800           0
      9793 MEMB     74       POPC     C311     CTL2    -0.180000       12.0110           0
      9794 MEMB     74       POPC     H11X     HAL2     0.900000E-01   1.00800           0
      9795 MEMB     74       POPC     H11Y     HAL2     0.900000E-01   1.00800           0
      9796 MEMB     74       POPC     C312     CTL2    -0.180000       12.0110           0
      9797 MEMB     74       POPC     H12X     HAL2     0.900000E-01   1.00800           0
      9798 MEMB     74       POPC     H12Y     HAL2     0.900000E-01   1.00800           0
      9799 MEMB     74       POPC     C313     CTL2    -0.180000       12.0110           0
      9800 MEMB     74       POPC     H13X     HAL2     0.900000E-01   1.00800           0
      9801 MEMB     74       POPC     H13Y     HAL2     0.900000E-01   1.00800           0
      9802 MEMB     74       POPC     C314     CTL2    -0.180000       12.0110           0
      9803 MEMB     74       POPC     H14X     HAL2     0.900000E-01   1.00800           0
      9804 MEMB     74       POPC     H14Y     HAL2     0.900000E-01   1.00800           0
      9805 MEMB     74       POPC     C315     CTL2    -0.180000       12.0110           0
      9806 MEMB     74       POPC     H15X     HAL2     0.900000E-01   1.00800           0
      9807 MEMB     74       POPC     H15Y     HAL2     0.900000E-01   1.00800           0
      9808 MEMB     74       POPC     C316     CTL3    -0.270000       12.0110           0
      9809 MEMB     74       POPC     H16X     HAL3     0.900000E-01   1.00800           0
      9810 MEMB     74       POPC     H16Y     HAL3     0.900000E-01   1.00800           0
      9811 MEMB     74       POPC     H16Z     HAL3     0.900000E-01   1.00800           0
      9812 MEMB     75       POPC     N        NTL     -0.600000       14.0070           0
      9813 MEMB     75       POPC     C12      CTL2    -0.100000       12.0110           0
      9814 MEMB     75       POPC     H12A     HL       0.250000       1.00800           0
      9815 MEMB     75       POPC     H12B     HL       0.250000       1.00800           0
      9816 MEMB     75       POPC     C13      CTL5    -0.350000       12.0110           0
      9817 MEMB     75       POPC     H13A     HL       0.250000       1.00800           0
      9818 MEMB     75       POPC     H13B     HL       0.250000       1.00800           0
      9819 MEMB     75       POPC     H13C     HL       0.250000       1.00800           0
      9820 MEMB     75       POPC     C14      CTL5    -0.350000       12.0110           0
      9821 MEMB     75       POPC     H14A     HL       0.250000       1.00800           0
      9822 MEMB     75       POPC     H14B     HL       0.250000       1.00800           0
      9823 MEMB     75       POPC     H14C     HL       0.250000       1.00800           0
      9824 MEMB     75       POPC     C15      CTL5    -0.350000       12.0110           0
      9825 MEMB     75       POPC     H15A     HL       0.250000       1.00800           0
      9826 MEMB     75       POPC     H15B     HL       0.250000       1.00800           0
      9827 MEMB     75       POPC     H15C     HL       0.250000       1.00800           0
      9828 MEMB     75       POPC     C11      CTL2    -0.800000E-01   12.0110           0
      9829 MEMB     75       POPC     H11A     HAL2     0.900000E-01   1.00800           0
      9830 MEMB     75       POPC     H11B     HAL2     0.900000E-01   1.00800           0
      9831 MEMB     75       POPC     P        PL        1.50000       30.9740           0
      9832 MEMB     75       POPC     O13      O2L     -0.780000       15.9994           0
      9833 MEMB     75       POPC     O14      O2L     -0.780000       15.9994           0
      9834 MEMB     75       POPC     O12      OSLP    -0.570000       15.9994           0
      9835 MEMB     75       POPC     O11      OSLP    -0.570000       15.9994           0
      9836 MEMB     75       POPC     C1       CTL2    -0.800000E-01   12.0110           0
      9837 MEMB     75       POPC     HA       HAL2     0.900000E-01   1.00800           0
      9838 MEMB     75       POPC     HB       HAL2     0.900000E-01   1.00800           0
      9839 MEMB     75       POPC     C2       CTL1     0.170000       12.0110           0
      9840 MEMB     75       POPC     HS       HAL1     0.900000E-01   1.00800           0
      9841 MEMB     75       POPC     O21      OSL     -0.490000       15.9994           0
      9842 MEMB     75       POPC     C21      CL       0.900000       12.0110           0
      9843 MEMB     75       POPC     O22      OBL     -0.630000       15.9994           0
      9844 MEMB     75       POPC     C22      CTL2    -0.220000       12.0110           0
      9845 MEMB     75       POPC     H2R      HAL2     0.900000E-01   1.00800           0
      9846 MEMB     75       POPC     H2S      HAL2     0.900000E-01   1.00800           0
      9847 MEMB     75       POPC     C3       CTL2     0.800000E-01   12.0110           0
      9848 MEMB     75       POPC     HX       HAL2     0.900000E-01   1.00800           0
      9849 MEMB     75       POPC     HY       HAL2     0.900000E-01   1.00800           0
      9850 MEMB     75       POPC     O31      OSL     -0.490000       15.9994           0
      9851 MEMB     75       POPC     C31      CL       0.900000       12.0110           0
      9852 MEMB     75       POPC     O32      OBL     -0.630000       15.9994           0
      9853 MEMB     75       POPC     C32      CTL2    -0.220000       12.0110           0
      9854 MEMB     75       POPC     H2X      HAL2     0.900000E-01   1.00800           0
      9855 MEMB     75       POPC     H2Y      HAL2     0.900000E-01   1.00800           0
      9856 MEMB     75       POPC     C23      CTL2    -0.180000       12.0110           0
      9857 MEMB     75       POPC     H3R      HAL2     0.900000E-01   1.00800           0
      9858 MEMB     75       POPC     H3S      HAL2     0.900000E-01   1.00800           0
      9859 MEMB     75       POPC     C24      CTL2    -0.180000       12.0110           0
      9860 MEMB     75       POPC     H4R      HAL2     0.900000E-01   1.00800           0
      9861 MEMB     75       POPC     H4S      HAL2     0.900000E-01   1.00800           0
      9862 MEMB     75       POPC     C25      CTL2    -0.180000       12.0110           0
      9863 MEMB     75       POPC     H5R      HAL2     0.900000E-01   1.00800           0
      9864 MEMB     75       POPC     H5S      HAL2     0.900000E-01   1.00800           0
      9865 MEMB     75       POPC     C26      CTL2    -0.180000       12.0110           0
      9866 MEMB     75       POPC     H6R      HAL2     0.900000E-01   1.00800           0
      9867 MEMB     75       POPC     H6S      HAL2     0.900000E-01   1.00800           0
      9868 MEMB     75       POPC     C27      CTL2    -0.180000       12.0110           0
      9869 MEMB     75       POPC     H7R      HAL2     0.900000E-01   1.00800           0
      9870 MEMB     75       POPC     H7S      HAL2     0.900000E-01   1.00800           0
      9871 MEMB     75       POPC     C28      CTL2    -0.180000       12.0110           0
      9872 MEMB     75       POPC     H8R      HAL2     0.900000E-01   1.00800           0
      9873 MEMB     75       POPC     H8S      HAL2     0.900000E-01   1.00800           0
      9874 MEMB     75       POPC     C29      CEL1    -0.150000       12.0110           0
      9875 MEMB     75       POPC     H91      HEL1     0.150000       1.00800           0
      9876 MEMB     75       POPC     C210     CEL1    -0.150000       12.0110           0
      9877 MEMB     75       POPC     H101     HEL1     0.150000       1.00800           0
      9878 MEMB     75       POPC     C211     CTL2    -0.180000       12.0110           0
      9879 MEMB     75       POPC     H11R     HAL2     0.900000E-01   1.00800           0
      9880 MEMB     75       POPC     H11S     HAL2     0.900000E-01   1.00800           0
      9881 MEMB     75       POPC     C212     CTL2    -0.180000       12.0110           0
      9882 MEMB     75       POPC     H12R     HAL2     0.900000E-01   1.00800           0
      9883 MEMB     75       POPC     H12S     HAL2     0.900000E-01   1.00800           0
      9884 MEMB     75       POPC     C213     CTL2    -0.180000       12.0110           0
      9885 MEMB     75       POPC     H13R     HAL2     0.900000E-01   1.00800           0
      9886 MEMB     75       POPC     H13S     HAL2     0.900000E-01   1.00800           0
      9887 MEMB     75       POPC     C214     CTL2    -0.180000       12.0110           0
      9888 MEMB     75       POPC     H14R     HAL2     0.900000E-01   1.00800           0
      9889 MEMB     75       POPC     H14S     HAL2     0.900000E-01   1.00800           0
      9890 MEMB     75       POPC     C215     CTL2    -0.180000       12.0110           0
      9891 MEMB     75       POPC     H15R     HAL2     0.900000E-01   1.00800           0
      9892 MEMB     75       POPC     H15S     HAL2     0.900000E-01   1.00800           0
      9893 MEMB     75       POPC     C216     CTL2    -0.180000       12.0110           0
      9894 MEMB     75       POPC     H16R     HAL2     0.900000E-01   1.00800           0
      9895 MEMB     75       POPC     H16S     HAL2     0.900000E-01   1.00800           0
      9896 MEMB     75       POPC     C217     CTL2    -0.180000       12.0110           0
      9897 MEMB     75       POPC     H17R     HAL2     0.900000E-01   1.00800           0
      9898 MEMB     75       POPC     H17S     HAL2     0.900000E-01   1.00800           0
      9899 MEMB     75       POPC     C218     CTL3    -0.270000       12.0110           0
      9900 MEMB     75       POPC     H18R     HAL3     0.900000E-01   1.00800           0
      9901 MEMB     75       POPC     H18S     HAL3     0.900000E-01   1.00800           0
      9902 MEMB     75       POPC     H18T     HAL3     0.900000E-01   1.00800           0
      9903 MEMB     75       POPC     C33      CTL2    -0.180000       12.0110           0
      9904 MEMB     75       POPC     H3X      HAL2     0.900000E-01   1.00800           0
      9905 MEMB     75       POPC     H3Y      HAL2     0.900000E-01   1.00800           0
      9906 MEMB     75       POPC     C34      CTL2    -0.180000       12.0110           0
      9907 MEMB     75       POPC     H4X      HAL2     0.900000E-01   1.00800           0
      9908 MEMB     75       POPC     H4Y      HAL2     0.900000E-01   1.00800           0
      9909 MEMB     75       POPC     C35      CTL2    -0.180000       12.0110           0
      9910 MEMB     75       POPC     H5X      HAL2     0.900000E-01   1.00800           0
      9911 MEMB     75       POPC     H5Y      HAL2     0.900000E-01   1.00800           0
      9912 MEMB     75       POPC     C36      CTL2    -0.180000       12.0110           0
      9913 MEMB     75       POPC     H6X      HAL2     0.900000E-01   1.00800           0
      9914 MEMB     75       POPC     H6Y      HAL2     0.900000E-01   1.00800           0
      9915 MEMB     75       POPC     C37      CTL2    -0.180000       12.0110           0
      9916 MEMB     75       POPC     H7X      HAL2     0.900000E-01   1.00800           0
      9917 MEMB     75       POPC     H7Y      HAL2     0.900000E-01   1.00800           0
      9918 MEMB     75       POPC     C38      CTL2    -0.180000       12.0110           0
      9919 MEMB     75       POPC     H8X      HAL2     0.900000E-01   1.00800           0
      9920 MEMB     75       POPC     H8Y      HAL2     0.900000E-01   1.00800           0
      9921 MEMB     75       POPC     C39      CTL2    -0.180000       12.0110           0
      9922 MEMB     75       POPC     H9X      HAL2     0.900000E-01   1.00800           0
      9923 MEMB     75       POPC     H9Y      HAL2     0.900000E-01   1.00800           0
      9924 MEMB     75       POPC     C310     CTL2    -0.180000       12.0110           0
      9925 MEMB     75       POPC     H10X     HAL2     0.900000E-01   1.00800           0
      9926 MEMB     75       POPC     H10Y     HAL2     0.900000E-01   1.00800           0
      9927 MEMB     75       POPC     C311     CTL2    -0.180000       12.0110           0
      9928 MEMB     75       POPC     H11X     HAL2     0.900000E-01   1.00800           0
      9929 MEMB     75       POPC     H11Y     HAL2     0.900000E-01   1.00800           0
      9930 MEMB     75       POPC     C312     CTL2    -0.180000       12.0110           0
      9931 MEMB     75       POPC     H12X     HAL2     0.900000E-01   1.00800           0
      9932 MEMB     75       POPC     H12Y     HAL2     0.900000E-01   1.00800           0
      9933 MEMB     75       POPC     C313     CTL2    -0.180000       12.0110           0
      9934 MEMB     75       POPC     H13X     HAL2     0.900000E-01   1.00800           0
      9935 MEMB     75       POPC     H13Y     HAL2     0.900000E-01   1.00800           0
      9936 MEMB     75       POPC     C314     CTL2    -0.180000       12.0110           0
      9937 MEMB     75       POPC     H14X     HAL2     0.900000E-01   1.00800           0
      9938 MEMB     75       POPC     H14Y     HAL2     0.900000E-01   1.00800           0
      9939 MEMB     75       POPC     C315     CTL2    -0.180000       12.0110           0
      9940 MEMB     75       POPC     H15X     HAL2     0.900000E-01   1.00800           0
      9941 MEMB     75       POPC     H15Y     HAL2     0.900000E-01   1.00800           0
      9942 MEMB     75       POPC     C316     CTL3    -0.270000       12.0110           0
      9943 MEMB     75       POPC     H16X     HAL3     0.900000E-01   1.00800           0
      9944 MEMB     75       POPC     H16Y     HAL3     0.900000E-01   1.00800           0
      9945 MEMB     75       POPC     H16Z     HAL3     0.900000E-01   1.00800           0
      9946 MEMB     76       POPS     N        NH3L    -0.300000       14.0070           0
      9947 MEMB     76       POPS     HN1      HCL      0.330000       1.00800           0
      9948 MEMB     76       POPS     HN2      HCL      0.330000       1.00800           0
      9949 MEMB     76       POPS     HN3      HCL      0.330000       1.00800           0
      9950 MEMB     76       POPS     C12      CTL1     0.210000       12.0110           0
      9951 MEMB     76       POPS     H12A     HBL      0.100000       1.00800           0
      9952 MEMB     76       POPS     C13      CCL      0.340000       12.0110           0
      9953 MEMB     76       POPS     O13A     OCL     -0.670000       15.9994           0
      9954 MEMB     76       POPS     O13B     OCL     -0.670000       15.9994           0
      9955 MEMB     76       POPS     C11      CTL2    -0.800000E-01   12.0110           0
      9956 MEMB     76       POPS     H11A     HAL2     0.900000E-01   1.00800           0
      9957 MEMB     76       POPS     H11B     HAL2     0.900000E-01   1.00800           0
      9958 MEMB     76       POPS     P        PL        1.50000       30.9740           0
      9959 MEMB     76       POPS     O13      O2L     -0.780000       15.9994           0
      9960 MEMB     76       POPS     O14      O2L     -0.780000       15.9994           0
      9961 MEMB     76       POPS     O12      OSLP    -0.570000       15.9994           0
      9962 MEMB     76       POPS     O11      OSLP    -0.570000       15.9994           0
      9963 MEMB     76       POPS     C1       CTL2    -0.800000E-01   12.0110           0
      9964 MEMB     76       POPS     HA       HAL2     0.900000E-01   1.00800           0
      9965 MEMB     76       POPS     HB       HAL2     0.900000E-01   1.00800           0
      9966 MEMB     76       POPS     C2       CTL1     0.170000       12.0110           0
      9967 MEMB     76       POPS     HS       HAL1     0.900000E-01   1.00800           0
      9968 MEMB     76       POPS     O21      OSL     -0.490000       15.9994           0
      9969 MEMB     76       POPS     C21      CL       0.900000       12.0110           0
      9970 MEMB     76       POPS     O22      OBL     -0.630000       15.9994           0
      9971 MEMB     76       POPS     C22      CTL2    -0.220000       12.0110           0
      9972 MEMB     76       POPS     H2R      HAL2     0.900000E-01   1.00800           0
      9973 MEMB     76       POPS     H2S      HAL2     0.900000E-01   1.00800           0
      9974 MEMB     76       POPS     C3       CTL2     0.800000E-01   12.0110           0
      9975 MEMB     76       POPS     HX       HAL2     0.900000E-01   1.00800           0
      9976 MEMB     76       POPS     HY       HAL2     0.900000E-01   1.00800           0
      9977 MEMB     76       POPS     O31      OSL     -0.490000       15.9994           0
      9978 MEMB     76       POPS     C31      CL       0.900000       12.0110           0
      9979 MEMB     76       POPS     O32      OBL     -0.630000       15.9994           0
      9980 MEMB     76       POPS     C32      CTL2    -0.220000       12.0110           0
      9981 MEMB     76       POPS     H2X      HAL2     0.900000E-01   1.00800           0
      9982 MEMB     76       POPS     H2Y      HAL2     0.900000E-01   1.00800           0
      9983 MEMB     76       POPS     C23      CTL2    -0.180000       12.0110           0
      9984 MEMB     76       POPS     H3R      HAL2     0.900000E-01   1.00800           0
      9985 MEMB     76       POPS     H3S      HAL2     0.900000E-01   1.00800           0
      9986 MEMB     76       POPS     C24      CTL2    -0.180000       12.0110           0
      9987 MEMB     76       POPS     H4R      HAL2     0.900000E-01   1.00800           0
      9988 MEMB     76       POPS     H4S      HAL2     0.900000E-01   1.00800           0
      9989 MEMB     76       POPS     C25      CTL2    -0.180000       12.0110           0
      9990 MEMB     76       POPS     H5R      HAL2     0.900000E-01   1.00800           0
      9991 MEMB     76       POPS     H5S      HAL2     0.900000E-01   1.00800           0
      9992 MEMB     76       POPS     C26      CTL2    -0.180000       12.0110           0
      9993 MEMB     76       POPS     H6R      HAL2     0.900000E-01   1.00800           0
      9994 MEMB     76       POPS     H6S      HAL2     0.900000E-01   1.00800           0
      9995 MEMB     76       POPS     C27      CTL2    -0.180000       12.0110           0
      9996 MEMB     76       POPS     H7R      HAL2     0.900000E-01   1.00800           0
      9997 MEMB     76       POPS     H7S      HAL2     0.900000E-01   1.00800           0
      9998 MEMB     76       POPS     C28      CTL2    -0.180000       12.0110           0
      9999 MEMB     76       POPS     H8R      HAL2     0.900000E-01   1.00800           0
     10000 MEMB     76       POPS     H8S      HAL2     0.900000E-01   1.00800           0
     10001 MEMB     76       POPS     C29      CEL1    -0.150000       12.0110           0
     10002 MEMB     76       POPS     H91      HEL1     0.150000       1.00800           0
     10003 MEMB     76       POPS     C210     CEL1    -0.150000       12.0110           0
     10004 MEMB     76       POPS     H101     HEL1     0.150000       1.00800           0
     10005 MEMB     76       POPS     C211     CTL2    -0.180000       12.0110           0
     10006 MEMB     76       POPS     H11R     HAL2     0.900000E-01   1.00800           0
     10007 MEMB     76       POPS     H11S     HAL2     0.900000E-01   1.00800           0
     10008 MEMB     76       POPS     C212     CTL2    -0.180000       12.0110           0
     10009 MEMB     76       POPS     H12R     HAL2     0.900000E-01   1.00800           0
     10010 MEMB     76       POPS     H12S     HAL2     0.900000E-01   1.00800           0
     10011 MEMB     76       POPS     C213     CTL2    -0.180000       12.0110           0
     10012 MEMB     76       POPS     H13R     HAL2     0.900000E-01   1.00800           0
     10013 MEMB     76       POPS     H13S     HAL2     0.900000E-01   1.00800           0
     10014 MEMB     76       POPS     C214     CTL2    -0.180000       12.0110           0
     10015 MEMB     76       POPS     H14R     HAL2     0.900000E-01   1.00800           0
     10016 MEMB     76       POPS     H14S     HAL2     0.900000E-01   1.00800           0
     10017 MEMB     76       POPS     C215     CTL2    -0.180000       12.0110           0
     10018 MEMB     76       POPS     H15R     HAL2     0.900000E-01   1.00800           0
     10019 MEMB     76       POPS     H15S     HAL2     0.900000E-01   1.00800           0
     10020 MEMB     76       POPS     C216     CTL2    -0.180000       12.0110           0
     10021 MEMB     76       POPS     H16R     HAL2     0.900000E-01   1.00800           0
     10022 MEMB     76       POPS     H16S     HAL2     0.900000E-01   1.00800           0
     10023 MEMB     76       POPS     C217     CTL2    -0.180000       12.0110           0
     10024 MEMB     76       POPS     H17R     HAL2     0.900000E-01   1.00800           0
     10025 MEMB     76       POPS     H17S     HAL2     0.900000E-01   1.00800           0
     10026 MEMB     76       POPS     C218     CTL3    -0.270000       12.0110           0
     10027 MEMB     76       POPS     H18R     HAL3     0.900000E-01   1.00800           0
     10028 MEMB     76       POPS     H18S     HAL3     0.900000E-01   1.00800           0
     10029 MEMB     76       POPS     H18T     HAL3     0.900000E-01   1.00800           0
     10030 MEMB     76       POPS     C33      CTL2    -0.180000       12.0110           0
     10031 MEMB     76       POPS     H3X      HAL2     0.900000E-01   1.00800           0
     10032 MEMB     76       POPS     H3Y      HAL2     0.900000E-01   1.00800           0
     10033 MEMB     76       POPS     C34      CTL2    -0.180000       12.0110           0
     10034 MEMB     76       POPS     H4X      HAL2     0.900000E-01   1.00800           0
     10035 MEMB     76       POPS     H4Y      HAL2     0.900000E-01   1.00800           0
     10036 MEMB     76       POPS     C35      CTL2    -0.180000       12.0110           0
     10037 MEMB     76       POPS     H5X      HAL2     0.900000E-01   1.00800           0
     10038 MEMB     76       POPS     H5Y      HAL2     0.900000E-01   1.00800           0
     10039 MEMB     76       POPS     C36      CTL2    -0.180000       12.0110           0
     10040 MEMB     76       POPS     H6X      HAL2     0.900000E-01   1.00800           0
     10041 MEMB     76       POPS     H6Y      HAL2     0.900000E-01   1.00800           0
     10042 MEMB     76       POPS     C37      CTL2    -0.180000       12.0110           0
     10043 MEMB     76       POPS     H7X      HAL2     0.900000E-01   1.00800           0
     10044 MEMB     76       POPS     H7Y      HAL2     0.900000E-01   1.00800           0
     10045 MEMB     76       POPS     C38      CTL2    -0.180000       12.0110           0
     10046 MEMB     76       POPS     H8X      HAL2     0.900000E-01   1.00800           0
     10047 MEMB     76       POPS     H8Y      HAL2     0.900000E-01   1.00800           0
     10048 MEMB     76       POPS     C39      CTL2    -0.180000       12.0110           0
     10049 MEMB     76       POPS     H9X      HAL2     0.900000E-01   1.00800           0
     10050 MEMB     76       POPS     H9Y      HAL2     0.900000E-01   1.00800           0
     10051 MEMB     76       POPS     C310     CTL2    -0.180000       12.0110           0
     10052 MEMB     76       POPS     H10X     HAL2     0.900000E-01   1.00800           0
     10053 MEMB     76       POPS     H10Y     HAL2     0.900000E-01   1.00800           0
     10054 MEMB     76       POPS     C311     CTL2    -0.180000       12.0110           0
     10055 MEMB     76       POPS     H11X     HAL2     0.900000E-01   1.00800           0
     10056 MEMB     76       POPS     H11Y     HAL2     0.900000E-01   1.00800           0
     10057 MEMB     76       POPS     C312     CTL2    -0.180000       12.0110           0
     10058 MEMB     76       POPS     H12X     HAL2     0.900000E-01   1.00800           0
     10059 MEMB     76       POPS     H12Y     HAL2     0.900000E-01   1.00800           0
     10060 MEMB     76       POPS     C313     CTL2    -0.180000       12.0110           0
     10061 MEMB     76       POPS     H13X     HAL2     0.900000E-01   1.00800           0
     10062 MEMB     76       POPS     H13Y     HAL2     0.900000E-01   1.00800           0
     10063 MEMB     76       POPS     C314     CTL2    -0.180000       12.0110           0
     10064 MEMB     76       POPS     H14X     HAL2     0.900000E-01   1.00800           0
     10065 MEMB     76       POPS     H14Y     HAL2     0.900000E-01   1.00800           0
     10066 MEMB     76       POPS     C315     CTL2    -0.180000       12.0110           0
     10067 MEMB     76       POPS     H15X     HAL2     0.900000E-01   1.00800           0
     10068 MEMB     76       POPS     H15Y     HAL2     0.900000E-01   1.00800           0
     10069 MEMB     76       POPS     C316     CTL3    -0.270000       12.0110           0
     10070 MEMB     76       POPS     H16X     HAL3     0.900000E-01   1.00800           0
     10071 MEMB     76       POPS     H16Y     HAL3     0.900000E-01   1.00800           0
     10072 MEMB     76       POPS     H16Z     HAL3     0.900000E-01   1.00800           0
     10073 MEMB     77       POPC     N        NTL     -0.600000       14.0070           0
     10074 MEMB     77       POPC     C12      CTL2    -0.100000       12.0110           0
     10075 MEMB     77       POPC     H12A     HL       0.250000       1.00800           0
     10076 MEMB     77       POPC     H12B     HL       0.250000       1.00800           0
     10077 MEMB     77       POPC     C13      CTL5    -0.350000       12.0110           0
     10078 MEMB     77       POPC     H13A     HL       0.250000       1.00800           0
     10079 MEMB     77       POPC     H13B     HL       0.250000       1.00800           0
     10080 MEMB     77       POPC     H13C     HL       0.250000       1.00800           0
     10081 MEMB     77       POPC     C14      CTL5    -0.350000       12.0110           0
     10082 MEMB     77       POPC     H14A     HL       0.250000       1.00800           0
     10083 MEMB     77       POPC     H14B     HL       0.250000       1.00800           0
     10084 MEMB     77       POPC     H14C     HL       0.250000       1.00800           0
     10085 MEMB     77       POPC     C15      CTL5    -0.350000       12.0110           0
     10086 MEMB     77       POPC     H15A     HL       0.250000       1.00800           0
     10087 MEMB     77       POPC     H15B     HL       0.250000       1.00800           0
     10088 MEMB     77       POPC     H15C     HL       0.250000       1.00800           0
     10089 MEMB     77       POPC     C11      CTL2    -0.800000E-01   12.0110           0
     10090 MEMB     77       POPC     H11A     HAL2     0.900000E-01   1.00800           0
     10091 MEMB     77       POPC     H11B     HAL2     0.900000E-01   1.00800           0
     10092 MEMB     77       POPC     P        PL        1.50000       30.9740           0
     10093 MEMB     77       POPC     O13      O2L     -0.780000       15.9994           0
     10094 MEMB     77       POPC     O14      O2L     -0.780000       15.9994           0
     10095 MEMB     77       POPC     O12      OSLP    -0.570000       15.9994           0
     10096 MEMB     77       POPC     O11      OSLP    -0.570000       15.9994           0
     10097 MEMB     77       POPC     C1       CTL2    -0.800000E-01   12.0110           0
     10098 MEMB     77       POPC     HA       HAL2     0.900000E-01   1.00800           0
     10099 MEMB     77       POPC     HB       HAL2     0.900000E-01   1.00800           0
     10100 MEMB     77       POPC     C2       CTL1     0.170000       12.0110           0
     10101 MEMB     77       POPC     HS       HAL1     0.900000E-01   1.00800           0
     10102 MEMB     77       POPC     O21      OSL     -0.490000       15.9994           0
     10103 MEMB     77       POPC     C21      CL       0.900000       12.0110           0
     10104 MEMB     77       POPC     O22      OBL     -0.630000       15.9994           0
     10105 MEMB     77       POPC     C22      CTL2    -0.220000       12.0110           0
     10106 MEMB     77       POPC     H2R      HAL2     0.900000E-01   1.00800           0
     10107 MEMB     77       POPC     H2S      HAL2     0.900000E-01   1.00800           0
     10108 MEMB     77       POPC     C3       CTL2     0.800000E-01   12.0110           0
     10109 MEMB     77       POPC     HX       HAL2     0.900000E-01   1.00800           0
     10110 MEMB     77       POPC     HY       HAL2     0.900000E-01   1.00800           0
     10111 MEMB     77       POPC     O31      OSL     -0.490000       15.9994           0
     10112 MEMB     77       POPC     C31      CL       0.900000       12.0110           0
     10113 MEMB     77       POPC     O32      OBL     -0.630000       15.9994           0
     10114 MEMB     77       POPC     C32      CTL2    -0.220000       12.0110           0
     10115 MEMB     77       POPC     H2X      HAL2     0.900000E-01   1.00800           0
     10116 MEMB     77       POPC     H2Y      HAL2     0.900000E-01   1.00800           0
     10117 MEMB     77       POPC     C23      CTL2    -0.180000       12.0110           0
     10118 MEMB     77       POPC     H3R      HAL2     0.900000E-01   1.00800           0
     10119 MEMB     77       POPC     H3S      HAL2     0.900000E-01   1.00800           0
     10120 MEMB     77       POPC     C24      CTL2    -0.180000       12.0110           0
     10121 MEMB     77       POPC     H4R      HAL2     0.900000E-01   1.00800           0
     10122 MEMB     77       POPC     H4S      HAL2     0.900000E-01   1.00800           0
     10123 MEMB     77       POPC     C25      CTL2    -0.180000       12.0110           0
     10124 MEMB     77       POPC     H5R      HAL2     0.900000E-01   1.00800           0
     10125 MEMB     77       POPC     H5S      HAL2     0.900000E-01   1.00800           0
     10126 MEMB     77       POPC     C26      CTL2    -0.180000       12.0110           0
     10127 MEMB     77       POPC     H6R      HAL2     0.900000E-01   1.00800           0
     10128 MEMB     77       POPC     H6S      HAL2     0.900000E-01   1.00800           0
     10129 MEMB     77       POPC     C27      CTL2    -0.180000       12.0110           0
     10130 MEMB     77       POPC     H7R      HAL2     0.900000E-01   1.00800           0
     10131 MEMB     77       POPC     H7S      HAL2     0.900000E-01   1.00800           0
     10132 MEMB     77       POPC     C28      CTL2    -0.180000       12.0110           0
     10133 MEMB     77       POPC     H8R      HAL2     0.900000E-01   1.00800           0
     10134 MEMB     77       POPC     H8S      HAL2     0.900000E-01   1.00800           0
     10135 MEMB     77       POPC     C29      CEL1    -0.150000       12.0110           0
     10136 MEMB     77       POPC     H91      HEL1     0.150000       1.00800           0
     10137 MEMB     77       POPC     C210     CEL1    -0.150000       12.0110           0
     10138 MEMB     77       POPC     H101     HEL1     0.150000       1.00800           0
     10139 MEMB     77       POPC     C211     CTL2    -0.180000       12.0110           0
     10140 MEMB     77       POPC     H11R     HAL2     0.900000E-01   1.00800           0
     10141 MEMB     77       POPC     H11S     HAL2     0.900000E-01   1.00800           0
     10142 MEMB     77       POPC     C212     CTL2    -0.180000       12.0110           0
     10143 MEMB     77       POPC     H12R     HAL2     0.900000E-01   1.00800           0
     10144 MEMB     77       POPC     H12S     HAL2     0.900000E-01   1.00800           0
     10145 MEMB     77       POPC     C213     CTL2    -0.180000       12.0110           0
     10146 MEMB     77       POPC     H13R     HAL2     0.900000E-01   1.00800           0
     10147 MEMB     77       POPC     H13S     HAL2     0.900000E-01   1.00800           0
     10148 MEMB     77       POPC     C214     CTL2    -0.180000       12.0110           0
     10149 MEMB     77       POPC     H14R     HAL2     0.900000E-01   1.00800           0
     10150 MEMB     77       POPC     H14S     HAL2     0.900000E-01   1.00800           0
     10151 MEMB     77       POPC     C215     CTL2    -0.180000       12.0110           0
     10152 MEMB     77       POPC     H15R     HAL2     0.900000E-01   1.00800           0
     10153 MEMB     77       POPC     H15S     HAL2     0.900000E-01   1.00800           0
     10154 MEMB     77       POPC     C216     CTL2    -0.180000       12.0110           0
     10155 MEMB     77       POPC     H16R     HAL2     0.900000E-01   1.00800           0
     10156 MEMB     77       POPC     H16S     HAL2     0.900000E-01   1.00800           0
     10157 MEMB     77       POPC     C217     CTL2    -0.180000       12.0110           0
     10158 MEMB     77       POPC     H17R     HAL2     0.900000E-01   1.00800           0
     10159 MEMB     77       POPC     H17S     HAL2     0.900000E-01   1.00800           0
     10160 MEMB     77       POPC     C218     CTL3    -0.270000       12.0110           0
     10161 MEMB     77       POPC     H18R     HAL3     0.900000E-01   1.00800           0
     10162 MEMB     77       POPC     H18S     HAL3     0.900000E-01   1.00800           0
     10163 MEMB     77       POPC     H18T     HAL3     0.900000E-01   1.00800           0
     10164 MEMB     77       POPC     C33      CTL2    -0.180000       12.0110           0
     10165 MEMB     77       POPC     H3X      HAL2     0.900000E-01   1.00800           0
     10166 MEMB     77       POPC     H3Y      HAL2     0.900000E-01   1.00800           0
     10167 MEMB     77       POPC     C34      CTL2    -0.180000       12.0110           0
     10168 MEMB     77       POPC     H4X      HAL2     0.900000E-01   1.00800           0
     10169 MEMB     77       POPC     H4Y      HAL2     0.900000E-01   1.00800           0
     10170 MEMB     77       POPC     C35      CTL2    -0.180000       12.0110           0
     10171 MEMB     77       POPC     H5X      HAL2     0.900000E-01   1.00800           0
     10172 MEMB     77       POPC     H5Y      HAL2     0.900000E-01   1.00800           0
     10173 MEMB     77       POPC     C36      CTL2    -0.180000       12.0110           0
     10174 MEMB     77       POPC     H6X      HAL2     0.900000E-01   1.00800           0
     10175 MEMB     77       POPC     H6Y      HAL2     0.900000E-01   1.00800           0
     10176 MEMB     77       POPC     C37      CTL2    -0.180000       12.0110           0
     10177 MEMB     77       POPC     H7X      HAL2     0.900000E-01   1.00800           0
     10178 MEMB     77       POPC     H7Y      HAL2     0.900000E-01   1.00800           0
     10179 MEMB     77       POPC     C38      CTL2    -0.180000       12.0110           0
     10180 MEMB     77       POPC     H8X      HAL2     0.900000E-01   1.00800           0
     10181 MEMB     77       POPC     H8Y      HAL2     0.900000E-01   1.00800           0
     10182 MEMB     77       POPC     C39      CTL2    -0.180000       12.0110           0
     10183 MEMB     77       POPC     H9X      HAL2     0.900000E-01   1.00800           0
     10184 MEMB     77       POPC     H9Y      HAL2     0.900000E-01   1.00800           0
     10185 MEMB     77       POPC     C310     CTL2    -0.180000       12.0110           0
     10186 MEMB     77       POPC     H10X     HAL2     0.900000E-01   1.00800           0
     10187 MEMB     77       POPC     H10Y     HAL2     0.900000E-01   1.00800           0
     10188 MEMB     77       POPC     C311     CTL2    -0.180000       12.0110           0
     10189 MEMB     77       POPC     H11X     HAL2     0.900000E-01   1.00800           0
     10190 MEMB     77       POPC     H11Y     HAL2     0.900000E-01   1.00800           0
     10191 MEMB     77       POPC     C312     CTL2    -0.180000       12.0110           0
     10192 MEMB     77       POPC     H12X     HAL2     0.900000E-01   1.00800           0
     10193 MEMB     77       POPC     H12Y     HAL2     0.900000E-01   1.00800           0
     10194 MEMB     77       POPC     C313     CTL2    -0.180000       12.0110           0
     10195 MEMB     77       POPC     H13X     HAL2     0.900000E-01   1.00800           0
     10196 MEMB     77       POPC     H13Y     HAL2     0.900000E-01   1.00800           0
     10197 MEMB     77       POPC     C314     CTL2    -0.180000       12.0110           0
     10198 MEMB     77       POPC     H14X     HAL2     0.900000E-01   1.00800           0
     10199 MEMB     77       POPC     H14Y     HAL2     0.900000E-01   1.00800           0
     10200 MEMB     77       POPC     C315     CTL2    -0.180000       12.0110           0
     10201 MEMB     77       POPC     H15X     HAL2     0.900000E-01   1.00800           0
     10202 MEMB     77       POPC     H15Y     HAL2     0.900000E-01   1.00800           0
     10203 MEMB     77       POPC     C316     CTL3    -0.270000       12.0110           0
     10204 MEMB     77       POPC     H16X     HAL3     0.900000E-01   1.00800           0
     10205 MEMB     77       POPC     H16Y     HAL3     0.900000E-01   1.00800           0
     10206 MEMB     77       POPC     H16Z     HAL3     0.900000E-01   1.00800           0
     10207 MEMB     78       POPS     N        NH3L    -0.300000       14.0070           0
     10208 MEMB     78       POPS     HN1      HCL      0.330000       1.00800           0
     10209 MEMB     78       POPS     HN2      HCL      0.330000       1.00800           0
     10210 MEMB     78       POPS     HN3      HCL      0.330000       1.00800           0
     10211 MEMB     78       POPS     C12      CTL1     0.210000       12.0110           0
     10212 MEMB     78       POPS     H12A     HBL      0.100000       1.00800           0
     10213 MEMB     78       POPS     C13      CCL      0.340000       12.0110           0
     10214 MEMB     78       POPS     O13A     OCL     -0.670000       15.9994           0
     10215 MEMB     78       POPS     O13B     OCL     -0.670000       15.9994           0
     10216 MEMB     78       POPS     C11      CTL2    -0.800000E-01   12.0110           0
     10217 MEMB     78       POPS     H11A     HAL2     0.900000E-01   1.00800           0
     10218 MEMB     78       POPS     H11B     HAL2     0.900000E-01   1.00800           0
     10219 MEMB     78       POPS     P        PL        1.50000       30.9740           0
     10220 MEMB     78       POPS     O13      O2L     -0.780000       15.9994           0
     10221 MEMB     78       POPS     O14      O2L     -0.780000       15.9994           0
     10222 MEMB     78       POPS     O12      OSLP    -0.570000       15.9994           0
     10223 MEMB     78       POPS     O11      OSLP    -0.570000       15.9994           0
     10224 MEMB     78       POPS     C1       CTL2    -0.800000E-01   12.0110           0
     10225 MEMB     78       POPS     HA       HAL2     0.900000E-01   1.00800           0
     10226 MEMB     78       POPS     HB       HAL2     0.900000E-01   1.00800           0
     10227 MEMB     78       POPS     C2       CTL1     0.170000       12.0110           0
     10228 MEMB     78       POPS     HS       HAL1     0.900000E-01   1.00800           0
     10229 MEMB     78       POPS     O21      OSL     -0.490000       15.9994           0
     10230 MEMB     78       POPS     C21      CL       0.900000       12.0110           0
     10231 MEMB     78       POPS     O22      OBL     -0.630000       15.9994           0
     10232 MEMB     78       POPS     C22      CTL2    -0.220000       12.0110           0
     10233 MEMB     78       POPS     H2R      HAL2     0.900000E-01   1.00800           0
     10234 MEMB     78       POPS     H2S      HAL2     0.900000E-01   1.00800           0
     10235 MEMB     78       POPS     C3       CTL2     0.800000E-01   12.0110           0
     10236 MEMB     78       POPS     HX       HAL2     0.900000E-01   1.00800           0
     10237 MEMB     78       POPS     HY       HAL2     0.900000E-01   1.00800           0
     10238 MEMB     78       POPS     O31      OSL     -0.490000       15.9994           0
     10239 MEMB     78       POPS     C31      CL       0.900000       12.0110           0
     10240 MEMB     78       POPS     O32      OBL     -0.630000       15.9994           0
     10241 MEMB     78       POPS     C32      CTL2    -0.220000       12.0110           0
     10242 MEMB     78       POPS     H2X      HAL2     0.900000E-01   1.00800           0
     10243 MEMB     78       POPS     H2Y      HAL2     0.900000E-01   1.00800           0
     10244 MEMB     78       POPS     C23      CTL2    -0.180000       12.0110           0
     10245 MEMB     78       POPS     H3R      HAL2     0.900000E-01   1.00800           0
     10246 MEMB     78       POPS     H3S      HAL2     0.900000E-01   1.00800           0
     10247 MEMB     78       POPS     C24      CTL2    -0.180000       12.0110           0
     10248 MEMB     78       POPS     H4R      HAL2     0.900000E-01   1.00800           0
     10249 MEMB     78       POPS     H4S      HAL2     0.900000E-01   1.00800           0
     10250 MEMB     78       POPS     C25      CTL2    -0.180000       12.0110           0
     10251 MEMB     78       POPS     H5R      HAL2     0.900000E-01   1.00800           0
     10252 MEMB     78       POPS     H5S      HAL2     0.900000E-01   1.00800           0
     10253 MEMB     78       POPS     C26      CTL2    -0.180000       12.0110           0
     10254 MEMB     78       POPS     H6R      HAL2     0.900000E-01   1.00800           0
     10255 MEMB     78       POPS     H6S      HAL2     0.900000E-01   1.00800           0
     10256 MEMB     78       POPS     C27      CTL2    -0.180000       12.0110           0
     10257 MEMB     78       POPS     H7R      HAL2     0.900000E-01   1.00800           0
     10258 MEMB     78       POPS     H7S      HAL2     0.900000E-01   1.00800           0
     10259 MEMB     78       POPS     C28      CTL2    -0.180000       12.0110           0
     10260 MEMB     78       POPS     H8R      HAL2     0.900000E-01   1.00800           0
     10261 MEMB     78       POPS     H8S      HAL2     0.900000E-01   1.00800           0
     10262 MEMB     78       POPS     C29      CEL1    -0.150000       12.0110           0
     10263 MEMB     78       POPS     H91      HEL1     0.150000       1.00800           0
     10264 MEMB     78       POPS     C210     CEL1    -0.150000       12.0110           0
     10265 MEMB     78       POPS     H101     HEL1     0.150000       1.00800           0
     10266 MEMB     78       POPS     C211     CTL2    -0.180000       12.0110           0
     10267 MEMB     78       POPS     H11R     HAL2     0.900000E-01   1.00800           0
     10268 MEMB     78       POPS     H11S     HAL2     0.900000E-01   1.00800           0
     10269 MEMB     78       POPS     C212     CTL2    -0.180000       12.0110           0
     10270 MEMB     78       POPS     H12R     HAL2     0.900000E-01   1.00800           0
     10271 MEMB     78       POPS     H12S     HAL2     0.900000E-01   1.00800           0
     10272 MEMB     78       POPS     C213     CTL2    -0.180000       12.0110           0
     10273 MEMB     78       POPS     H13R     HAL2     0.900000E-01   1.00800           0
     10274 MEMB     78       POPS     H13S     HAL2     0.900000E-01   1.00800           0
     10275 MEMB     78       POPS     C214     CTL2    -0.180000       12.0110           0
     10276 MEMB     78       POPS     H14R     HAL2     0.900000E-01   1.00800           0
     10277 MEMB     78       POPS     H14S     HAL2     0.900000E-01   1.00800           0
     10278 MEMB     78       POPS     C215     CTL2    -0.180000       12.0110           0
     10279 MEMB     78       POPS     H15R     HAL2     0.900000E-01   1.00800           0
     10280 MEMB     78       POPS     H15S     HAL2     0.900000E-01   1.00800           0
     10281 MEMB     78       POPS     C216     CTL2    -0.180000       12.0110           0
     10282 MEMB     78       POPS     H16R     HAL2     0.900000E-01   1.00800           0
     10283 MEMB     78       POPS     H16S     HAL2     0.900000E-01   1.00800           0
     10284 MEMB     78       POPS     C217     CTL2    -0.180000       12.0110           0
     10285 MEMB     78       POPS     H17R     HAL2     0.900000E-01   1.00800           0
     10286 MEMB     78       POPS     H17S     HAL2     0.900000E-01   1.00800           0
     10287 MEMB     78       POPS     C218     CTL3    -0.270000       12.0110           0
     10288 MEMB     78       POPS     H18R     HAL3     0.900000E-01   1.00800           0
     10289 MEMB     78       POPS     H18S     HAL3     0.900000E-01   1.00800           0
     10290 MEMB     78       POPS     H18T     HAL3     0.900000E-01   1.00800           0
     10291 MEMB     78       POPS     C33      CTL2    -0.180000       12.0110           0
     10292 MEMB     78       POPS     H3X      HAL2     0.900000E-01   1.00800           0
     10293 MEMB     78       POPS     H3Y      HAL2     0.900000E-01   1.00800           0
     10294 MEMB     78       POPS     C34      CTL2    -0.180000       12.0110           0
     10295 MEMB     78       POPS     H4X      HAL2     0.900000E-01   1.00800           0
     10296 MEMB     78       POPS     H4Y      HAL2     0.900000E-01   1.00800           0
     10297 MEMB     78       POPS     C35      CTL2    -0.180000       12.0110           0
     10298 MEMB     78       POPS     H5X      HAL2     0.900000E-01   1.00800           0
     10299 MEMB     78       POPS     H5Y      HAL2     0.900000E-01   1.00800           0
     10300 MEMB     78       POPS     C36      CTL2    -0.180000       12.0110           0
     10301 MEMB     78       POPS     H6X      HAL2     0.900000E-01   1.00800           0
     10302 MEMB     78       POPS     H6Y      HAL2     0.900000E-01   1.00800           0
     10303 MEMB     78       POPS     C37      CTL2    -0.180000       12.0110           0
     10304 MEMB     78       POPS     H7X      HAL2     0.900000E-01   1.00800           0
     10305 MEMB     78       POPS     H7Y      HAL2     0.900000E-01   1.00800           0
     10306 MEMB     78       POPS     C38      CTL2    -0.180000       12.0110           0
     10307 MEMB     78       POPS     H8X      HAL2     0.900000E-01   1.00800           0
     10308 MEMB     78       POPS     H8Y      HAL2     0.900000E-01   1.00800           0
     10309 MEMB     78       POPS     C39      CTL2    -0.180000       12.0110           0
     10310 MEMB     78       POPS     H9X      HAL2     0.900000E-01   1.00800           0
     10311 MEMB     78       POPS     H9Y      HAL2     0.900000E-01   1.00800           0
     10312 MEMB     78       POPS     C310     CTL2    -0.180000       12.0110           0
     10313 MEMB     78       POPS     H10X     HAL2     0.900000E-01   1.00800           0
     10314 MEMB     78       POPS     H10Y     HAL2     0.900000E-01   1.00800           0
     10315 MEMB     78       POPS     C311     CTL2    -0.180000       12.0110           0
     10316 MEMB     78       POPS     H11X     HAL2     0.900000E-01   1.00800           0
     10317 MEMB     78       POPS     H11Y     HAL2     0.900000E-01   1.00800           0
     10318 MEMB     78       POPS     C312     CTL2    -0.180000       12.0110           0
     10319 MEMB     78       POPS     H12X     HAL2     0.900000E-01   1.00800           0
     10320 MEMB     78       POPS     H12Y     HAL2     0.900000E-01   1.00800           0
     10321 MEMB     78       POPS     C313     CTL2    -0.180000       12.0110           0
     10322 MEMB     78       POPS     H13X     HAL2     0.900000E-01   1.00800           0
     10323 MEMB     78       POPS     H13Y     HAL2     0.900000E-01   1.00800           0
     10324 MEMB     78       POPS     C314     CTL2    -0.180000       12.0110           0
     10325 MEMB     78       POPS     H14X     HAL2     0.900000E-01   1.00800           0
     10326 MEMB     78       POPS     H14Y     HAL2     0.900000E-01   1.00800           0
     10327 MEMB     78       POPS     C315     CTL2    -0.180000       12.0110           0
     10328 MEMB     78       POPS     H15X     HAL2     0.900000E-01   1.00800           0
     10329 MEMB     78       POPS     H15Y     HAL2     0.900000E-01   1.00800           0
     10330 MEMB     78       POPS     C316     CTL3    -0.270000       12.0110           0
     10331 MEMB     78       POPS     H16X     HAL3     0.900000E-01   1.00800           0
     10332 MEMB     78       POPS     H16Y     HAL3     0.900000E-01   1.00800           0
     10333 MEMB     78       POPS     H16Z     HAL3     0.900000E-01   1.00800           0
     10334 MEMB     79       POPS     N        NH3L    -0.300000       14.0070           0
     10335 MEMB     79       POPS     HN1      HCL      0.330000       1.00800           0
     10336 MEMB     79       POPS     HN2      HCL      0.330000       1.00800           0
     10337 MEMB     79       POPS     HN3      HCL      0.330000       1.00800           0
     10338 MEMB     79       POPS     C12      CTL1     0.210000       12.0110           0
     10339 MEMB     79       POPS     H12A     HBL      0.100000       1.00800           0
     10340 MEMB     79       POPS     C13      CCL      0.340000       12.0110           0
     10341 MEMB     79       POPS     O13A     OCL     -0.670000       15.9994           0
     10342 MEMB     79       POPS     O13B     OCL     -0.670000       15.9994           0
     10343 MEMB     79       POPS     C11      CTL2    -0.800000E-01   12.0110           0
     10344 MEMB     79       POPS     H11A     HAL2     0.900000E-01   1.00800           0
     10345 MEMB     79       POPS     H11B     HAL2     0.900000E-01   1.00800           0
     10346 MEMB     79       POPS     P        PL        1.50000       30.9740           0
     10347 MEMB     79       POPS     O13      O2L     -0.780000       15.9994           0
     10348 MEMB     79       POPS     O14      O2L     -0.780000       15.9994           0
     10349 MEMB     79       POPS     O12      OSLP    -0.570000       15.9994           0
     10350 MEMB     79       POPS     O11      OSLP    -0.570000       15.9994           0
     10351 MEMB     79       POPS     C1       CTL2    -0.800000E-01   12.0110           0
     10352 MEMB     79       POPS     HA       HAL2     0.900000E-01   1.00800           0
     10353 MEMB     79       POPS     HB       HAL2     0.900000E-01   1.00800           0
     10354 MEMB     79       POPS     C2       CTL1     0.170000       12.0110           0
     10355 MEMB     79       POPS     HS       HAL1     0.900000E-01   1.00800           0
     10356 MEMB     79       POPS     O21      OSL     -0.490000       15.9994           0
     10357 MEMB     79       POPS     C21      CL       0.900000       12.0110           0
     10358 MEMB     79       POPS     O22      OBL     -0.630000       15.9994           0
     10359 MEMB     79       POPS     C22      CTL2    -0.220000       12.0110           0
     10360 MEMB     79       POPS     H2R      HAL2     0.900000E-01   1.00800           0
     10361 MEMB     79       POPS     H2S      HAL2     0.900000E-01   1.00800           0
     10362 MEMB     79       POPS     C3       CTL2     0.800000E-01   12.0110           0
     10363 MEMB     79       POPS     HX       HAL2     0.900000E-01   1.00800           0
     10364 MEMB     79       POPS     HY       HAL2     0.900000E-01   1.00800           0
     10365 MEMB     79       POPS     O31      OSL     -0.490000       15.9994           0
     10366 MEMB     79       POPS     C31      CL       0.900000       12.0110           0
     10367 MEMB     79       POPS     O32      OBL     -0.630000       15.9994           0
     10368 MEMB     79       POPS     C32      CTL2    -0.220000       12.0110           0
     10369 MEMB     79       POPS     H2X      HAL2     0.900000E-01   1.00800           0
     10370 MEMB     79       POPS     H2Y      HAL2     0.900000E-01   1.00800           0
     10371 MEMB     79       POPS     C23      CTL2    -0.180000       12.0110           0
     10372 MEMB     79       POPS     H3R      HAL2     0.900000E-01   1.00800           0
     10373 MEMB     79       POPS     H3S      HAL2     0.900000E-01   1.00800           0
     10374 MEMB     79       POPS     C24      CTL2    -0.180000       12.0110           0
     10375 MEMB     79       POPS     H4R      HAL2     0.900000E-01   1.00800           0
     10376 MEMB     79       POPS     H4S      HAL2     0.900000E-01   1.00800           0
     10377 MEMB     79       POPS     C25      CTL2    -0.180000       12.0110           0
     10378 MEMB     79       POPS     H5R      HAL2     0.900000E-01   1.00800           0
     10379 MEMB     79       POPS     H5S      HAL2     0.900000E-01   1.00800           0
     10380 MEMB     79       POPS     C26      CTL2    -0.180000       12.0110           0
     10381 MEMB     79       POPS     H6R      HAL2     0.900000E-01   1.00800           0
     10382 MEMB     79       POPS     H6S      HAL2     0.900000E-01   1.00800           0
     10383 MEMB     79       POPS     C27      CTL2    -0.180000       12.0110           0
     10384 MEMB     79       POPS     H7R      HAL2     0.900000E-01   1.00800           0
     10385 MEMB     79       POPS     H7S      HAL2     0.900000E-01   1.00800           0
     10386 MEMB     79       POPS     C28      CTL2    -0.180000       12.0110           0
     10387 MEMB     79       POPS     H8R      HAL2     0.900000E-01   1.00800           0
     10388 MEMB     79       POPS     H8S      HAL2     0.900000E-01   1.00800           0
     10389 MEMB     79       POPS     C29      CEL1    -0.150000       12.0110           0
     10390 MEMB     79       POPS     H91      HEL1     0.150000       1.00800           0
     10391 MEMB     79       POPS     C210     CEL1    -0.150000       12.0110           0
     10392 MEMB     79       POPS     H101     HEL1     0.150000       1.00800           0
     10393 MEMB     79       POPS     C211     CTL2    -0.180000       12.0110           0
     10394 MEMB     79       POPS     H11R     HAL2     0.900000E-01   1.00800           0
     10395 MEMB     79       POPS     H11S     HAL2     0.900000E-01   1.00800           0
     10396 MEMB     79       POPS     C212     CTL2    -0.180000       12.0110           0
     10397 MEMB     79       POPS     H12R     HAL2     0.900000E-01   1.00800           0
     10398 MEMB     79       POPS     H12S     HAL2     0.900000E-01   1.00800           0
     10399 MEMB     79       POPS     C213     CTL2    -0.180000       12.0110           0
     10400 MEMB     79       POPS     H13R     HAL2     0.900000E-01   1.00800           0
     10401 MEMB     79       POPS     H13S     HAL2     0.900000E-01   1.00800           0
     10402 MEMB     79       POPS     C214     CTL2    -0.180000       12.0110           0
     10403 MEMB     79       POPS     H14R     HAL2     0.900000E-01   1.00800           0
     10404 MEMB     79       POPS     H14S     HAL2     0.900000E-01   1.00800           0
     10405 MEMB     79       POPS     C215     CTL2    -0.180000       12.0110           0
     10406 MEMB     79       POPS     H15R     HAL2     0.900000E-01   1.00800           0
     10407 MEMB     79       POPS     H15S     HAL2     0.900000E-01   1.00800           0
     10408 MEMB     79       POPS     C216     CTL2    -0.180000       12.0110           0
     10409 MEMB     79       POPS     H16R     HAL2     0.900000E-01   1.00800           0
     10410 MEMB     79       POPS     H16S     HAL2     0.900000E-01   1.00800           0
     10411 MEMB     79       POPS     C217     CTL2    -0.180000       12.0110           0
     10412 MEMB     79       POPS     H17R     HAL2     0.900000E-01   1.00800           0
     10413 MEMB     79       POPS     H17S     HAL2     0.900000E-01   1.00800           0
     10414 MEMB     79       POPS     C218     CTL3    -0.270000       12.0110           0
     10415 MEMB     79       POPS     H18R     HAL3     0.900000E-01   1.00800           0
     10416 MEMB     79       POPS     H18S     HAL3     0.900000E-01   1.00800           0
     10417 MEMB     79       POPS     H18T     HAL3     0.900000E-01   1.00800           0
     10418 MEMB     79       POPS     C33      CTL2    -0.180000       12.0110           0
     10419 MEMB     79       POPS     H3X      HAL2     0.900000E-01   1.00800           0
     10420 MEMB     79       POPS     H3Y      HAL2     0.900000E-01   1.00800           0
     10421 MEMB     79       POPS     C34      CTL2    -0.180000       12.0110           0
     10422 MEMB     79       POPS     H4X      HAL2     0.900000E-01   1.00800           0
     10423 MEMB     79       POPS     H4Y      HAL2     0.900000E-01   1.00800           0
     10424 MEMB     79       POPS     C35      CTL2    -0.180000       12.0110           0
     10425 MEMB     79       POPS     H5X      HAL2     0.900000E-01   1.00800           0
     10426 MEMB     79       POPS     H5Y      HAL2     0.900000E-01   1.00800           0
     10427 MEMB     79       POPS     C36      CTL2    -0.180000       12.0110           0
     10428 MEMB     79       POPS     H6X      HAL2     0.900000E-01   1.00800           0
     10429 MEMB     79       POPS     H6Y      HAL2     0.900000E-01   1.00800           0
     10430 MEMB     79       POPS     C37      CTL2    -0.180000       12.0110           0
     10431 MEMB     79       POPS     H7X      HAL2     0.900000E-01   1.00800           0
     10432 MEMB     79       POPS     H7Y      HAL2     0.900000E-01   1.00800           0
     10433 MEMB     79       POPS     C38      CTL2    -0.180000       12.0110           0
     10434 MEMB     79       POPS     H8X      HAL2     0.900000E-01   1.00800           0
     10435 MEMB     79       POPS     H8Y      HAL2     0.900000E-01   1.00800           0
     10436 MEMB     79       POPS     C39      CTL2    -0.180000       12.0110           0
     10437 MEMB     79       POPS     H9X      HAL2     0.900000E-01   1.00800           0
     10438 MEMB     79       POPS     H9Y      HAL2     0.900000E-01   1.00800           0
     10439 MEMB     79       POPS     C310     CTL2    -0.180000       12.0110           0
     10440 MEMB     79       POPS     H10X     HAL2     0.900000E-01   1.00800           0
     10441 MEMB     79       POPS     H10Y     HAL2     0.900000E-01   1.00800           0
     10442 MEMB     79       POPS     C311     CTL2    -0.180000       12.0110           0
     10443 MEMB     79       POPS     H11X     HAL2     0.900000E-01   1.00800           0
     10444 MEMB     79       POPS     H11Y     HAL2     0.900000E-01   1.00800           0
     10445 MEMB     79       POPS     C312     CTL2    -0.180000       12.0110           0
     10446 MEMB     79       POPS     H12X     HAL2     0.900000E-01   1.00800           0
     10447 MEMB     79       POPS     H12Y     HAL2     0.900000E-01   1.00800           0
     10448 MEMB     79       POPS     C313     CTL2    -0.180000       12.0110           0
     10449 MEMB     79       POPS     H13X     HAL2     0.900000E-01   1.00800           0
     10450 MEMB     79       POPS     H13Y     HAL2     0.900000E-01   1.00800           0
     10451 MEMB     79       POPS     C314     CTL2    -0.180000       12.0110           0
     10452 MEMB     79       POPS     H14X     HAL2     0.900000E-01   1.00800           0
     10453 MEMB     79       POPS     H14Y     HAL2     0.900000E-01   1.00800           0
     10454 MEMB     79       POPS     C315     CTL2    -0.180000       12.0110           0
     10455 MEMB     79       POPS     H15X     HAL2     0.900000E-01   1.00800           0
     10456 MEMB     79       POPS     H15Y     HAL2     0.900000E-01   1.00800           0
     10457 MEMB     79       POPS     C316     CTL3    -0.270000       12.0110           0
     10458 MEMB     79       POPS     H16X     HAL3     0.900000E-01   1.00800           0
     10459 MEMB     79       POPS     H16Y     HAL3     0.900000E-01   1.00800           0
     10460 MEMB     79       POPS     H16Z     HAL3     0.900000E-01   1.00800           0
     10461 MEMB     80       POPC     N        NTL     -0.600000       14.0070           0
     10462 MEMB     80       POPC     C12      CTL2    -0.100000       12.0110           0
     10463 MEMB     80       POPC     H12A     HL       0.250000       1.00800           0
     10464 MEMB     80       POPC     H12B     HL       0.250000       1.00800           0
     10465 MEMB     80       POPC     C13      CTL5    -0.350000       12.0110           0
     10466 MEMB     80       POPC     H13A     HL       0.250000       1.00800           0
     10467 MEMB     80       POPC     H13B     HL       0.250000       1.00800           0
     10468 MEMB     80       POPC     H13C     HL       0.250000       1.00800           0
     10469 MEMB     80       POPC     C14      CTL5    -0.350000       12.0110           0
     10470 MEMB     80       POPC     H14A     HL       0.250000       1.00800           0
     10471 MEMB     80       POPC     H14B     HL       0.250000       1.00800           0
     10472 MEMB     80       POPC     H14C     HL       0.250000       1.00800           0
     10473 MEMB     80       POPC     C15      CTL5    -0.350000       12.0110           0
     10474 MEMB     80       POPC     H15A     HL       0.250000       1.00800           0
     10475 MEMB     80       POPC     H15B     HL       0.250000       1.00800           0
     10476 MEMB     80       POPC     H15C     HL       0.250000       1.00800           0
     10477 MEMB     80       POPC     C11      CTL2    -0.800000E-01   12.0110           0
     10478 MEMB     80       POPC     H11A     HAL2     0.900000E-01   1.00800           0
     10479 MEMB     80       POPC     H11B     HAL2     0.900000E-01   1.00800           0
     10480 MEMB     80       POPC     P        PL        1.50000       30.9740           0
     10481 MEMB     80       POPC     O13      O2L     -0.780000       15.9994           0
     10482 MEMB     80       POPC     O14      O2L     -0.780000       15.9994           0
     10483 MEMB     80       POPC     O12      OSLP    -0.570000       15.9994           0
     10484 MEMB     80       POPC     O11      OSLP    -0.570000       15.9994           0
     10485 MEMB     80       POPC     C1       CTL2    -0.800000E-01   12.0110           0
     10486 MEMB     80       POPC     HA       HAL2     0.900000E-01   1.00800           0
     10487 MEMB     80       POPC     HB       HAL2     0.900000E-01   1.00800           0
     10488 MEMB     80       POPC     C2       CTL1     0.170000       12.0110           0
     10489 MEMB     80       POPC     HS       HAL1     0.900000E-01   1.00800           0
     10490 MEMB     80       POPC     O21      OSL     -0.490000       15.9994           0
     10491 MEMB     80       POPC     C21      CL       0.900000       12.0110           0
     10492 MEMB     80       POPC     O22      OBL     -0.630000       15.9994           0
     10493 MEMB     80       POPC     C22      CTL2    -0.220000       12.0110           0
     10494 MEMB     80       POPC     H2R      HAL2     0.900000E-01   1.00800           0
     10495 MEMB     80       POPC     H2S      HAL2     0.900000E-01   1.00800           0
     10496 MEMB     80       POPC     C3       CTL2     0.800000E-01   12.0110           0
     10497 MEMB     80       POPC     HX       HAL2     0.900000E-01   1.00800           0
     10498 MEMB     80       POPC     HY       HAL2     0.900000E-01   1.00800           0
     10499 MEMB     80       POPC     O31      OSL     -0.490000       15.9994           0
     10500 MEMB     80       POPC     C31      CL       0.900000       12.0110           0
     10501 MEMB     80       POPC     O32      OBL     -0.630000       15.9994           0
     10502 MEMB     80       POPC     C32      CTL2    -0.220000       12.0110           0
     10503 MEMB     80       POPC     H2X      HAL2     0.900000E-01   1.00800           0
     10504 MEMB     80       POPC     H2Y      HAL2     0.900000E-01   1.00800           0
     10505 MEMB     80       POPC     C23      CTL2    -0.180000       12.0110           0
     10506 MEMB     80       POPC     H3R      HAL2     0.900000E-01   1.00800           0
     10507 MEMB     80       POPC     H3S      HAL2     0.900000E-01   1.00800           0
     10508 MEMB     80       POPC     C24      CTL2    -0.180000       12.0110           0
     10509 MEMB     80       POPC     H4R      HAL2     0.900000E-01   1.00800           0
     10510 MEMB     80       POPC     H4S      HAL2     0.900000E-01   1.00800           0
     10511 MEMB     80       POPC     C25      CTL2    -0.180000       12.0110           0
     10512 MEMB     80       POPC     H5R      HAL2     0.900000E-01   1.00800           0
     10513 MEMB     80       POPC     H5S      HAL2     0.900000E-01   1.00800           0
     10514 MEMB     80       POPC     C26      CTL2    -0.180000       12.0110           0
     10515 MEMB     80       POPC     H6R      HAL2     0.900000E-01   1.00800           0
     10516 MEMB     80       POPC     H6S      HAL2     0.900000E-01   1.00800           0
     10517 MEMB     80       POPC     C27      CTL2    -0.180000       12.0110           0
     10518 MEMB     80       POPC     H7R      HAL2     0.900000E-01   1.00800           0
     10519 MEMB     80       POPC     H7S      HAL2     0.900000E-01   1.00800           0
     10520 MEMB     80       POPC     C28      CTL2    -0.180000       12.0110           0
     10521 MEMB     80       POPC     H8R      HAL2     0.900000E-01   1.00800           0
     10522 MEMB     80       POPC     H8S      HAL2     0.900000E-01   1.00800           0
     10523 MEMB     80       POPC     C29      CEL1    -0.150000       12.0110           0
     10524 MEMB     80       POPC     H91      HEL1     0.150000       1.00800           0
     10525 MEMB     80       POPC     C210     CEL1    -0.150000       12.0110           0
     10526 MEMB     80       POPC     H101     HEL1     0.150000       1.00800           0
     10527 MEMB     80       POPC     C211     CTL2    -0.180000       12.0110           0
     10528 MEMB     80       POPC     H11R     HAL2     0.900000E-01   1.00800           0
     10529 MEMB     80       POPC     H11S     HAL2     0.900000E-01   1.00800           0
     10530 MEMB     80       POPC     C212     CTL2    -0.180000       12.0110           0
     10531 MEMB     80       POPC     H12R     HAL2     0.900000E-01   1.00800           0
     10532 MEMB     80       POPC     H12S     HAL2     0.900000E-01   1.00800           0
     10533 MEMB     80       POPC     C213     CTL2    -0.180000       12.0110           0
     10534 MEMB     80       POPC     H13R     HAL2     0.900000E-01   1.00800           0
     10535 MEMB     80       POPC     H13S     HAL2     0.900000E-01   1.00800           0
     10536 MEMB     80       POPC     C214     CTL2    -0.180000       12.0110           0
     10537 MEMB     80       POPC     H14R     HAL2     0.900000E-01   1.00800           0
     10538 MEMB     80       POPC     H14S     HAL2     0.900000E-01   1.00800           0
     10539 MEMB     80       POPC     C215     CTL2    -0.180000       12.0110           0
     10540 MEMB     80       POPC     H15R     HAL2     0.900000E-01   1.00800           0
     10541 MEMB     80       POPC     H15S     HAL2     0.900000E-01   1.00800           0
     10542 MEMB     80       POPC     C216     CTL2    -0.180000       12.0110           0
     10543 MEMB     80       POPC     H16R     HAL2     0.900000E-01   1.00800           0
     10544 MEMB     80       POPC     H16S     HAL2     0.900000E-01   1.00800           0
     10545 MEMB     80       POPC     C217     CTL2    -0.180000       12.0110           0
     10546 MEMB     80       POPC     H17R     HAL2     0.900000E-01   1.00800           0
     10547 MEMB     80       POPC     H17S     HAL2     0.900000E-01   1.00800           0
     10548 MEMB     80       POPC     C218     CTL3    -0.270000       12.0110           0
     10549 MEMB     80       POPC     H18R     HAL3     0.900000E-01   1.00800           0
     10550 MEMB     80       POPC     H18S     HAL3     0.900000E-01   1.00800           0
     10551 MEMB     80       POPC     H18T     HAL3     0.900000E-01   1.00800           0
     10552 MEMB     80       POPC     C33      CTL2    -0.180000       12.0110           0
     10553 MEMB     80       POPC     H3X      HAL2     0.900000E-01   1.00800           0
     10554 MEMB     80       POPC     H3Y      HAL2     0.900000E-01   1.00800           0
     10555 MEMB     80       POPC     C34      CTL2    -0.180000       12.0110           0
     10556 MEMB     80       POPC     H4X      HAL2     0.900000E-01   1.00800           0
     10557 MEMB     80       POPC     H4Y      HAL2     0.900000E-01   1.00800           0
     10558 MEMB     80       POPC     C35      CTL2    -0.180000       12.0110           0
     10559 MEMB     80       POPC     H5X      HAL2     0.900000E-01   1.00800           0
     10560 MEMB     80       POPC     H5Y      HAL2     0.900000E-01   1.00800           0
     10561 MEMB     80       POPC     C36      CTL2    -0.180000       12.0110           0
     10562 MEMB     80       POPC     H6X      HAL2     0.900000E-01   1.00800           0
     10563 MEMB     80       POPC     H6Y      HAL2     0.900000E-01   1.00800           0
     10564 MEMB     80       POPC     C37      CTL2    -0.180000       12.0110           0
     10565 MEMB     80       POPC     H7X      HAL2     0.900000E-01   1.00800           0
     10566 MEMB     80       POPC     H7Y      HAL2     0.900000E-01   1.00800           0
     10567 MEMB     80       POPC     C38      CTL2    -0.180000       12.0110           0
     10568 MEMB     80       POPC     H8X      HAL2     0.900000E-01   1.00800           0
     10569 MEMB     80       POPC     H8Y      HAL2     0.900000E-01   1.00800           0
     10570 MEMB     80       POPC     C39      CTL2    -0.180000       12.0110           0
     10571 MEMB     80       POPC     H9X      HAL2     0.900000E-01   1.00800           0
     10572 MEMB     80       POPC     H9Y      HAL2     0.900000E-01   1.00800           0
     10573 MEMB     80       POPC     C310     CTL2    -0.180000       12.0110           0
     10574 MEMB     80       POPC     H10X     HAL2     0.900000E-01   1.00800           0
     10575 MEMB     80       POPC     H10Y     HAL2     0.900000E-01   1.00800           0
     10576 MEMB     80       POPC     C311     CTL2    -0.180000       12.0110           0
     10577 MEMB     80       POPC     H11X     HAL2     0.900000E-01   1.00800           0
     10578 MEMB     80       POPC     H11Y     HAL2     0.900000E-01   1.00800           0
     10579 MEMB     80       POPC     C312     CTL2    -0.180000       12.0110           0
     10580 MEMB     80       POPC     H12X     HAL2     0.900000E-01   1.00800           0
     10581 MEMB     80       POPC     H12Y     HAL2     0.900000E-01   1.00800           0
     10582 MEMB     80       POPC     C313     CTL2    -0.180000       12.0110           0
     10583 MEMB     80       POPC     H13X     HAL2     0.900000E-01   1.00800           0
     10584 MEMB     80       POPC     H13Y     HAL2     0.900000E-01   1.00800           0
     10585 MEMB     80       POPC     C314     CTL2    -0.180000       12.0110           0
     10586 MEMB     80       POPC     H14X     HAL2     0.900000E-01   1.00800           0
     10587 MEMB     80       POPC     H14Y     HAL2     0.900000E-01   1.00800           0
     10588 MEMB     80       POPC     C315     CTL2    -0.180000       12.0110           0
     10589 MEMB     80       POPC     H15X     HAL2     0.900000E-01   1.00800           0
     10590 MEMB     80       POPC     H15Y     HAL2     0.900000E-01   1.00800           0
     10591 MEMB     80       POPC     C316     CTL3    -0.270000       12.0110           0
     10592 MEMB     80       POPC     H16X     HAL3     0.900000E-01   1.00800           0
     10593 MEMB     80       POPC     H16Y     HAL3     0.900000E-01   1.00800           0
     10594 MEMB     80       POPC     H16Z     HAL3     0.900000E-01   1.00800           0
     10595 MEMB     81       POPC     N        NTL     -0.600000       14.0070           0
     10596 MEMB     81       POPC     C12      CTL2    -0.100000       12.0110           0
     10597 MEMB     81       POPC     H12A     HL       0.250000       1.00800           0
     10598 MEMB     81       POPC     H12B     HL       0.250000       1.00800           0
     10599 MEMB     81       POPC     C13      CTL5    -0.350000       12.0110           0
     10600 MEMB     81       POPC     H13A     HL       0.250000       1.00800           0
     10601 MEMB     81       POPC     H13B     HL       0.250000       1.00800           0
     10602 MEMB     81       POPC     H13C     HL       0.250000       1.00800           0
     10603 MEMB     81       POPC     C14      CTL5    -0.350000       12.0110           0
     10604 MEMB     81       POPC     H14A     HL       0.250000       1.00800           0
     10605 MEMB     81       POPC     H14B     HL       0.250000       1.00800           0
     10606 MEMB     81       POPC     H14C     HL       0.250000       1.00800           0
     10607 MEMB     81       POPC     C15      CTL5    -0.350000       12.0110           0
     10608 MEMB     81       POPC     H15A     HL       0.250000       1.00800           0
     10609 MEMB     81       POPC     H15B     HL       0.250000       1.00800           0
     10610 MEMB     81       POPC     H15C     HL       0.250000       1.00800           0
     10611 MEMB     81       POPC     C11      CTL2    -0.800000E-01   12.0110           0
     10612 MEMB     81       POPC     H11A     HAL2     0.900000E-01   1.00800           0
     10613 MEMB     81       POPC     H11B     HAL2     0.900000E-01   1.00800           0
     10614 MEMB     81       POPC     P        PL        1.50000       30.9740           0
     10615 MEMB     81       POPC     O13      O2L     -0.780000       15.9994           0
     10616 MEMB     81       POPC     O14      O2L     -0.780000       15.9994           0
     10617 MEMB     81       POPC     O12      OSLP    -0.570000       15.9994           0
     10618 MEMB     81       POPC     O11      OSLP    -0.570000       15.9994           0
     10619 MEMB     81       POPC     C1       CTL2    -0.800000E-01   12.0110           0
     10620 MEMB     81       POPC     HA       HAL2     0.900000E-01   1.00800           0
     10621 MEMB     81       POPC     HB       HAL2     0.900000E-01   1.00800           0
     10622 MEMB     81       POPC     C2       CTL1     0.170000       12.0110           0
     10623 MEMB     81       POPC     HS       HAL1     0.900000E-01   1.00800           0
     10624 MEMB     81       POPC     O21      OSL     -0.490000       15.9994           0
     10625 MEMB     81       POPC     C21      CL       0.900000       12.0110           0
     10626 MEMB     81       POPC     O22      OBL     -0.630000       15.9994           0
     10627 MEMB     81       POPC     C22      CTL2    -0.220000       12.0110           0
     10628 MEMB     81       POPC     H2R      HAL2     0.900000E-01   1.00800           0
     10629 MEMB     81       POPC     H2S      HAL2     0.900000E-01   1.00800           0
     10630 MEMB     81       POPC     C3       CTL2     0.800000E-01   12.0110           0
     10631 MEMB     81       POPC     HX       HAL2     0.900000E-01   1.00800           0
     10632 MEMB     81       POPC     HY       HAL2     0.900000E-01   1.00800           0
     10633 MEMB     81       POPC     O31      OSL     -0.490000       15.9994           0
     10634 MEMB     81       POPC     C31      CL       0.900000       12.0110           0
     10635 MEMB     81       POPC     O32      OBL     -0.630000       15.9994           0
     10636 MEMB     81       POPC     C32      CTL2    -0.220000       12.0110           0
     10637 MEMB     81       POPC     H2X      HAL2     0.900000E-01   1.00800           0
     10638 MEMB     81       POPC     H2Y      HAL2     0.900000E-01   1.00800           0
     10639 MEMB     81       POPC     C23      CTL2    -0.180000       12.0110           0
     10640 MEMB     81       POPC     H3R      HAL2     0.900000E-01   1.00800           0
     10641 MEMB     81       POPC     H3S      HAL2     0.900000E-01   1.00800           0
     10642 MEMB     81       POPC     C24      CTL2    -0.180000       12.0110           0
     10643 MEMB     81       POPC     H4R      HAL2     0.900000E-01   1.00800           0
     10644 MEMB     81       POPC     H4S      HAL2     0.900000E-01   1.00800           0
     10645 MEMB     81       POPC     C25      CTL2    -0.180000       12.0110           0
     10646 MEMB     81       POPC     H5R      HAL2     0.900000E-01   1.00800           0
     10647 MEMB     81       POPC     H5S      HAL2     0.900000E-01   1.00800           0
     10648 MEMB     81       POPC     C26      CTL2    -0.180000       12.0110           0
     10649 MEMB     81       POPC     H6R      HAL2     0.900000E-01   1.00800           0
     10650 MEMB     81       POPC     H6S      HAL2     0.900000E-01   1.00800           0
     10651 MEMB     81       POPC     C27      CTL2    -0.180000       12.0110           0
     10652 MEMB     81       POPC     H7R      HAL2     0.900000E-01   1.00800           0
     10653 MEMB     81       POPC     H7S      HAL2     0.900000E-01   1.00800           0
     10654 MEMB     81       POPC     C28      CTL2    -0.180000       12.0110           0
     10655 MEMB     81       POPC     H8R      HAL2     0.900000E-01   1.00800           0
     10656 MEMB     81       POPC     H8S      HAL2     0.900000E-01   1.00800           0
     10657 MEMB     81       POPC     C29      CEL1    -0.150000       12.0110           0
     10658 MEMB     81       POPC     H91      HEL1     0.150000       1.00800           0
     10659 MEMB     81       POPC     C210     CEL1    -0.150000       12.0110           0
     10660 MEMB     81       POPC     H101     HEL1     0.150000       1.00800           0
     10661 MEMB     81       POPC     C211     CTL2    -0.180000       12.0110           0
     10662 MEMB     81       POPC     H11R     HAL2     0.900000E-01   1.00800           0
     10663 MEMB     81       POPC     H11S     HAL2     0.900000E-01   1.00800           0
     10664 MEMB     81       POPC     C212     CTL2    -0.180000       12.0110           0
     10665 MEMB     81       POPC     H12R     HAL2     0.900000E-01   1.00800           0
     10666 MEMB     81       POPC     H12S     HAL2     0.900000E-01   1.00800           0
     10667 MEMB     81       POPC     C213     CTL2    -0.180000       12.0110           0
     10668 MEMB     81       POPC     H13R     HAL2     0.900000E-01   1.00800           0
     10669 MEMB     81       POPC     H13S     HAL2     0.900000E-01   1.00800           0
     10670 MEMB     81       POPC     C214     CTL2    -0.180000       12.0110           0
     10671 MEMB     81       POPC     H14R     HAL2     0.900000E-01   1.00800           0
     10672 MEMB     81       POPC     H14S     HAL2     0.900000E-01   1.00800           0
     10673 MEMB     81       POPC     C215     CTL2    -0.180000       12.0110           0
     10674 MEMB     81       POPC     H15R     HAL2     0.900000E-01   1.00800           0
     10675 MEMB     81       POPC     H15S     HAL2     0.900000E-01   1.00800           0
     10676 MEMB     81       POPC     C216     CTL2    -0.180000       12.0110           0
     10677 MEMB     81       POPC     H16R     HAL2     0.900000E-01   1.00800           0
     10678 MEMB     81       POPC     H16S     HAL2     0.900000E-01   1.00800           0
     10679 MEMB     81       POPC     C217     CTL2    -0.180000       12.0110           0
     10680 MEMB     81       POPC     H17R     HAL2     0.900000E-01   1.00800           0
     10681 MEMB     81       POPC     H17S     HAL2     0.900000E-01   1.00800           0
     10682 MEMB     81       POPC     C218     CTL3    -0.270000       12.0110           0
     10683 MEMB     81       POPC     H18R     HAL3     0.900000E-01   1.00800           0
     10684 MEMB     81       POPC     H18S     HAL3     0.900000E-01   1.00800           0
     10685 MEMB     81       POPC     H18T     HAL3     0.900000E-01   1.00800           0
     10686 MEMB     81       POPC     C33      CTL2    -0.180000       12.0110           0
     10687 MEMB     81       POPC     H3X      HAL2     0.900000E-01   1.00800           0
     10688 MEMB     81       POPC     H3Y      HAL2     0.900000E-01   1.00800           0
     10689 MEMB     81       POPC     C34      CTL2    -0.180000       12.0110           0
     10690 MEMB     81       POPC     H4X      HAL2     0.900000E-01   1.00800           0
     10691 MEMB     81       POPC     H4Y      HAL2     0.900000E-01   1.00800           0
     10692 MEMB     81       POPC     C35      CTL2    -0.180000       12.0110           0
     10693 MEMB     81       POPC     H5X      HAL2     0.900000E-01   1.00800           0
     10694 MEMB     81       POPC     H5Y      HAL2     0.900000E-01   1.00800           0
     10695 MEMB     81       POPC     C36      CTL2    -0.180000       12.0110           0
     10696 MEMB     81       POPC     H6X      HAL2     0.900000E-01   1.00800           0
     10697 MEMB     81       POPC     H6Y      HAL2     0.900000E-01   1.00800           0
     10698 MEMB     81       POPC     C37      CTL2    -0.180000       12.0110           0
     10699 MEMB     81       POPC     H7X      HAL2     0.900000E-01   1.00800           0
     10700 MEMB     81       POPC     H7Y      HAL2     0.900000E-01   1.00800           0
     10701 MEMB     81       POPC     C38      CTL2    -0.180000       12.0110           0
     10702 MEMB     81       POPC     H8X      HAL2     0.900000E-01   1.00800           0
     10703 MEMB     81       POPC     H8Y      HAL2     0.900000E-01   1.00800           0
     10704 MEMB     81       POPC     C39      CTL2    -0.180000       12.0110           0
     10705 MEMB     81       POPC     H9X      HAL2     0.900000E-01   1.00800           0
     10706 MEMB     81       POPC     H9Y      HAL2     0.900000E-01   1.00800           0
     10707 MEMB     81       POPC     C310     CTL2    -0.180000       12.0110           0
     10708 MEMB     81       POPC     H10X     HAL2     0.900000E-01   1.00800           0
     10709 MEMB     81       POPC     H10Y     HAL2     0.900000E-01   1.00800           0
     10710 MEMB     81       POPC     C311     CTL2    -0.180000       12.0110           0
     10711 MEMB     81       POPC     H11X     HAL2     0.900000E-01   1.00800           0
     10712 MEMB     81       POPC     H11Y     HAL2     0.900000E-01   1.00800           0
     10713 MEMB     81       POPC     C312     CTL2    -0.180000       12.0110           0
     10714 MEMB     81       POPC     H12X     HAL2     0.900000E-01   1.00800           0
     10715 MEMB     81       POPC     H12Y     HAL2     0.900000E-01   1.00800           0
     10716 MEMB     81       POPC     C313     CTL2    -0.180000       12.0110           0
     10717 MEMB     81       POPC     H13X     HAL2     0.900000E-01   1.00800           0
     10718 MEMB     81       POPC     H13Y     HAL2     0.900000E-01   1.00800           0
     10719 MEMB     81       POPC     C314     CTL2    -0.180000       12.0110           0
     10720 MEMB     81       POPC     H14X     HAL2     0.900000E-01   1.00800           0
     10721 MEMB     81       POPC     H14Y     HAL2     0.900000E-01   1.00800           0
     10722 MEMB     81       POPC     C315     CTL2    -0.180000       12.0110           0
     10723 MEMB     81       POPC     H15X     HAL2     0.900000E-01   1.00800           0
     10724 MEMB     81       POPC     H15Y     HAL2     0.900000E-01   1.00800           0
     10725 MEMB     81       POPC     C316     CTL3    -0.270000       12.0110           0
     10726 MEMB     81       POPC     H16X     HAL3     0.900000E-01   1.00800           0
     10727 MEMB     81       POPC     H16Y     HAL3     0.900000E-01   1.00800           0
     10728 MEMB     81       POPC     H16Z     HAL3     0.900000E-01   1.00800           0
     10729 MEMB     82       POPS     N        NH3L    -0.300000       14.0070           0
     10730 MEMB     82       POPS     HN1      HCL      0.330000       1.00800           0
     10731 MEMB     82       POPS     HN2      HCL      0.330000       1.00800           0
     10732 MEMB     82       POPS     HN3      HCL      0.330000       1.00800           0
     10733 MEMB     82       POPS     C12      CTL1     0.210000       12.0110           0
     10734 MEMB     82       POPS     H12A     HBL      0.100000       1.00800           0
     10735 MEMB     82       POPS     C13      CCL      0.340000       12.0110           0
     10736 MEMB     82       POPS     O13A     OCL     -0.670000       15.9994           0
     10737 MEMB     82       POPS     O13B     OCL     -0.670000       15.9994           0
     10738 MEMB     82       POPS     C11      CTL2    -0.800000E-01   12.0110           0
     10739 MEMB     82       POPS     H11A     HAL2     0.900000E-01   1.00800           0
     10740 MEMB     82       POPS     H11B     HAL2     0.900000E-01   1.00800           0
     10741 MEMB     82       POPS     P        PL        1.50000       30.9740           0
     10742 MEMB     82       POPS     O13      O2L     -0.780000       15.9994           0
     10743 MEMB     82       POPS     O14      O2L     -0.780000       15.9994           0
     10744 MEMB     82       POPS     O12      OSLP    -0.570000       15.9994           0
     10745 MEMB     82       POPS     O11      OSLP    -0.570000       15.9994           0
     10746 MEMB     82       POPS     C1       CTL2    -0.800000E-01   12.0110           0
     10747 MEMB     82       POPS     HA       HAL2     0.900000E-01   1.00800           0
     10748 MEMB     82       POPS     HB       HAL2     0.900000E-01   1.00800           0
     10749 MEMB     82       POPS     C2       CTL1     0.170000       12.0110           0
     10750 MEMB     82       POPS     HS       HAL1     0.900000E-01   1.00800           0
     10751 MEMB     82       POPS     O21      OSL     -0.490000       15.9994           0
     10752 MEMB     82       POPS     C21      CL       0.900000       12.0110           0
     10753 MEMB     82       POPS     O22      OBL     -0.630000       15.9994           0
     10754 MEMB     82       POPS     C22      CTL2    -0.220000       12.0110           0
     10755 MEMB     82       POPS     H2R      HAL2     0.900000E-01   1.00800           0
     10756 MEMB     82       POPS     H2S      HAL2     0.900000E-01   1.00800           0
     10757 MEMB     82       POPS     C3       CTL2     0.800000E-01   12.0110           0
     10758 MEMB     82       POPS     HX       HAL2     0.900000E-01   1.00800           0
     10759 MEMB     82       POPS     HY       HAL2     0.900000E-01   1.00800           0
     10760 MEMB     82       POPS     O31      OSL     -0.490000       15.9994           0
     10761 MEMB     82       POPS     C31      CL       0.900000       12.0110           0
     10762 MEMB     82       POPS     O32      OBL     -0.630000       15.9994           0
     10763 MEMB     82       POPS     C32      CTL2    -0.220000       12.0110           0
     10764 MEMB     82       POPS     H2X      HAL2     0.900000E-01   1.00800           0
     10765 MEMB     82       POPS     H2Y      HAL2     0.900000E-01   1.00800           0
     10766 MEMB     82       POPS     C23      CTL2    -0.180000       12.0110           0
     10767 MEMB     82       POPS     H3R      HAL2     0.900000E-01   1.00800           0
     10768 MEMB     82       POPS     H3S      HAL2     0.900000E-01   1.00800           0
     10769 MEMB     82       POPS     C24      CTL2    -0.180000       12.0110           0
     10770 MEMB     82       POPS     H4R      HAL2     0.900000E-01   1.00800           0
     10771 MEMB     82       POPS     H4S      HAL2     0.900000E-01   1.00800           0
     10772 MEMB     82       POPS     C25      CTL2    -0.180000       12.0110           0
     10773 MEMB     82       POPS     H5R      HAL2     0.900000E-01   1.00800           0
     10774 MEMB     82       POPS     H5S      HAL2     0.900000E-01   1.00800           0
     10775 MEMB     82       POPS     C26      CTL2    -0.180000       12.0110           0
     10776 MEMB     82       POPS     H6R      HAL2     0.900000E-01   1.00800           0
     10777 MEMB     82       POPS     H6S      HAL2     0.900000E-01   1.00800           0
     10778 MEMB     82       POPS     C27      CTL2    -0.180000       12.0110           0
     10779 MEMB     82       POPS     H7R      HAL2     0.900000E-01   1.00800           0
     10780 MEMB     82       POPS     H7S      HAL2     0.900000E-01   1.00800           0
     10781 MEMB     82       POPS     C28      CTL2    -0.180000       12.0110           0
     10782 MEMB     82       POPS     H8R      HAL2     0.900000E-01   1.00800           0
     10783 MEMB     82       POPS     H8S      HAL2     0.900000E-01   1.00800           0
     10784 MEMB     82       POPS     C29      CEL1    -0.150000       12.0110           0
     10785 MEMB     82       POPS     H91      HEL1     0.150000       1.00800           0
     10786 MEMB     82       POPS     C210     CEL1    -0.150000       12.0110           0
     10787 MEMB     82       POPS     H101     HEL1     0.150000       1.00800           0
     10788 MEMB     82       POPS     C211     CTL2    -0.180000       12.0110           0
     10789 MEMB     82       POPS     H11R     HAL2     0.900000E-01   1.00800           0
     10790 MEMB     82       POPS     H11S     HAL2     0.900000E-01   1.00800           0
     10791 MEMB     82       POPS     C212     CTL2    -0.180000       12.0110           0
     10792 MEMB     82       POPS     H12R     HAL2     0.900000E-01   1.00800           0
     10793 MEMB     82       POPS     H12S     HAL2     0.900000E-01   1.00800           0
     10794 MEMB     82       POPS     C213     CTL2    -0.180000       12.0110           0
     10795 MEMB     82       POPS     H13R     HAL2     0.900000E-01   1.00800           0
     10796 MEMB     82       POPS     H13S     HAL2     0.900000E-01   1.00800           0
     10797 MEMB     82       POPS     C214     CTL2    -0.180000       12.0110           0
     10798 MEMB     82       POPS     H14R     HAL2     0.900000E-01   1.00800           0
     10799 MEMB     82       POPS     H14S     HAL2     0.900000E-01   1.00800           0
     10800 MEMB     82       POPS     C215     CTL2    -0.180000       12.0110           0
     10801 MEMB     82       POPS     H15R     HAL2     0.900000E-01   1.00800           0
     10802 MEMB     82       POPS     H15S     HAL2     0.900000E-01   1.00800           0
     10803 MEMB     82       POPS     C216     CTL2    -0.180000       12.0110           0
     10804 MEMB     82       POPS     H16R     HAL2     0.900000E-01   1.00800           0
     10805 MEMB     82       POPS     H16S     HAL2     0.900000E-01   1.00800           0
     10806 MEMB     82       POPS     C217     CTL2    -0.180000       12.0110           0
     10807 MEMB     82       POPS     H17R     HAL2     0.900000E-01   1.00800           0
     10808 MEMB     82       POPS     H17S     HAL2     0.900000E-01   1.00800           0
     10809 MEMB     82       POPS     C218     CTL3    -0.270000       12.0110           0
     10810 MEMB     82       POPS     H18R     HAL3     0.900000E-01   1.00800           0
     10811 MEMB     82       POPS     H18S     HAL3     0.900000E-01   1.00800           0
     10812 MEMB     82       POPS     H18T     HAL3     0.900000E-01   1.00800           0
     10813 MEMB     82       POPS     C33      CTL2    -0.180000       12.0110           0
     10814 MEMB     82       POPS     H3X      HAL2     0.900000E-01   1.00800           0
     10815 MEMB     82       POPS     H3Y      HAL2     0.900000E-01   1.00800           0
     10816 MEMB     82       POPS     C34      CTL2    -0.180000       12.0110           0
     10817 MEMB     82       POPS     H4X      HAL2     0.900000E-01   1.00800           0
     10818 MEMB     82       POPS     H4Y      HAL2     0.900000E-01   1.00800           0
     10819 MEMB     82       POPS     C35      CTL2    -0.180000       12.0110           0
     10820 MEMB     82       POPS     H5X      HAL2     0.900000E-01   1.00800           0
     10821 MEMB     82       POPS     H5Y      HAL2     0.900000E-01   1.00800           0
     10822 MEMB     82       POPS     C36      CTL2    -0.180000       12.0110           0
     10823 MEMB     82       POPS     H6X      HAL2     0.900000E-01   1.00800           0
     10824 MEMB     82       POPS     H6Y      HAL2     0.900000E-01   1.00800           0
     10825 MEMB     82       POPS     C37      CTL2    -0.180000       12.0110           0
     10826 MEMB     82       POPS     H7X      HAL2     0.900000E-01   1.00800           0
     10827 MEMB     82       POPS     H7Y      HAL2     0.900000E-01   1.00800           0
     10828 MEMB     82       POPS     C38      CTL2    -0.180000       12.0110           0
     10829 MEMB     82       POPS     H8X      HAL2     0.900000E-01   1.00800           0
     10830 MEMB     82       POPS     H8Y      HAL2     0.900000E-01   1.00800           0
     10831 MEMB     82       POPS     C39      CTL2    -0.180000       12.0110           0
     10832 MEMB     82       POPS     H9X      HAL2     0.900000E-01   1.00800           0
     10833 MEMB     82       POPS     H9Y      HAL2     0.900000E-01   1.00800           0
     10834 MEMB     82       POPS     C310     CTL2    -0.180000       12.0110           0
     10835 MEMB     82       POPS     H10X     HAL2     0.900000E-01   1.00800           0
     10836 MEMB     82       POPS     H10Y     HAL2     0.900000E-01   1.00800           0
     10837 MEMB     82       POPS     C311     CTL2    -0.180000       12.0110           0
     10838 MEMB     82       POPS     H11X     HAL2     0.900000E-01   1.00800           0
     10839 MEMB     82       POPS     H11Y     HAL2     0.900000E-01   1.00800           0
     10840 MEMB     82       POPS     C312     CTL2    -0.180000       12.0110           0
     10841 MEMB     82       POPS     H12X     HAL2     0.900000E-01   1.00800           0
     10842 MEMB     82       POPS     H12Y     HAL2     0.900000E-01   1.00800           0
     10843 MEMB     82       POPS     C313     CTL2    -0.180000       12.0110           0
     10844 MEMB     82       POPS     H13X     HAL2     0.900000E-01   1.00800           0
     10845 MEMB     82       POPS     H13Y     HAL2     0.900000E-01   1.00800           0
     10846 MEMB     82       POPS     C314     CTL2    -0.180000       12.0110           0
     10847 MEMB     82       POPS     H14X     HAL2     0.900000E-01   1.00800           0
     10848 MEMB     82       POPS     H14Y     HAL2     0.900000E-01   1.00800           0
     10849 MEMB     82       POPS     C315     CTL2    -0.180000       12.0110           0
     10850 MEMB     82       POPS     H15X     HAL2     0.900000E-01   1.00800           0
     10851 MEMB     82       POPS     H15Y     HAL2     0.900000E-01   1.00800           0
     10852 MEMB     82       POPS     C316     CTL3    -0.270000       12.0110           0
     10853 MEMB     82       POPS     H16X     HAL3     0.900000E-01   1.00800           0
     10854 MEMB     82       POPS     H16Y     HAL3     0.900000E-01   1.00800           0
     10855 MEMB     82       POPS     H16Z     HAL3     0.900000E-01   1.00800           0
     10856 MEMB     83       POPC     N        NTL     -0.600000       14.0070           0
     10857 MEMB     83       POPC     C12      CTL2    -0.100000       12.0110           0
     10858 MEMB     83       POPC     H12A     HL       0.250000       1.00800           0
     10859 MEMB     83       POPC     H12B     HL       0.250000       1.00800           0
     10860 MEMB     83       POPC     C13      CTL5    -0.350000       12.0110           0
     10861 MEMB     83       POPC     H13A     HL       0.250000       1.00800           0
     10862 MEMB     83       POPC     H13B     HL       0.250000       1.00800           0
     10863 MEMB     83       POPC     H13C     HL       0.250000       1.00800           0
     10864 MEMB     83       POPC     C14      CTL5    -0.350000       12.0110           0
     10865 MEMB     83       POPC     H14A     HL       0.250000       1.00800           0
     10866 MEMB     83       POPC     H14B     HL       0.250000       1.00800           0
     10867 MEMB     83       POPC     H14C     HL       0.250000       1.00800           0
     10868 MEMB     83       POPC     C15      CTL5    -0.350000       12.0110           0
     10869 MEMB     83       POPC     H15A     HL       0.250000       1.00800           0
     10870 MEMB     83       POPC     H15B     HL       0.250000       1.00800           0
     10871 MEMB     83       POPC     H15C     HL       0.250000       1.00800           0
     10872 MEMB     83       POPC     C11      CTL2    -0.800000E-01   12.0110           0
     10873 MEMB     83       POPC     H11A     HAL2     0.900000E-01   1.00800           0
     10874 MEMB     83       POPC     H11B     HAL2     0.900000E-01   1.00800           0
     10875 MEMB     83       POPC     P        PL        1.50000       30.9740           0
     10876 MEMB     83       POPC     O13      O2L     -0.780000       15.9994           0
     10877 MEMB     83       POPC     O14      O2L     -0.780000       15.9994           0
     10878 MEMB     83       POPC     O12      OSLP    -0.570000       15.9994           0
     10879 MEMB     83       POPC     O11      OSLP    -0.570000       15.9994           0
     10880 MEMB     83       POPC     C1       CTL2    -0.800000E-01   12.0110           0
     10881 MEMB     83       POPC     HA       HAL2     0.900000E-01   1.00800           0
     10882 MEMB     83       POPC     HB       HAL2     0.900000E-01   1.00800           0
     10883 MEMB     83       POPC     C2       CTL1     0.170000       12.0110           0
     10884 MEMB     83       POPC     HS       HAL1     0.900000E-01   1.00800           0
     10885 MEMB     83       POPC     O21      OSL     -0.490000       15.9994           0
     10886 MEMB     83       POPC     C21      CL       0.900000       12.0110           0
     10887 MEMB     83       POPC     O22      OBL     -0.630000       15.9994           0
     10888 MEMB     83       POPC     C22      CTL2    -0.220000       12.0110           0
     10889 MEMB     83       POPC     H2R      HAL2     0.900000E-01   1.00800           0
     10890 MEMB     83       POPC     H2S      HAL2     0.900000E-01   1.00800           0
     10891 MEMB     83       POPC     C3       CTL2     0.800000E-01   12.0110           0
     10892 MEMB     83       POPC     HX       HAL2     0.900000E-01   1.00800           0
     10893 MEMB     83       POPC     HY       HAL2     0.900000E-01   1.00800           0
     10894 MEMB     83       POPC     O31      OSL     -0.490000       15.9994           0
     10895 MEMB     83       POPC     C31      CL       0.900000       12.0110           0
     10896 MEMB     83       POPC     O32      OBL     -0.630000       15.9994           0
     10897 MEMB     83       POPC     C32      CTL2    -0.220000       12.0110           0
     10898 MEMB     83       POPC     H2X      HAL2     0.900000E-01   1.00800           0
     10899 MEMB     83       POPC     H2Y      HAL2     0.900000E-01   1.00800           0
     10900 MEMB     83       POPC     C23      CTL2    -0.180000       12.0110           0
     10901 MEMB     83       POPC     H3R      HAL2     0.900000E-01   1.00800           0
     10902 MEMB     83       POPC     H3S      HAL2     0.900000E-01   1.00800           0
     10903 MEMB     83       POPC     C24      CTL2    -0.180000       12.0110           0
     10904 MEMB     83       POPC     H4R      HAL2     0.900000E-01   1.00800           0
     10905 MEMB     83       POPC     H4S      HAL2     0.900000E-01   1.00800           0
     10906 MEMB     83       POPC     C25      CTL2    -0.180000       12.0110           0
     10907 MEMB     83       POPC     H5R      HAL2     0.900000E-01   1.00800           0
     10908 MEMB     83       POPC     H5S      HAL2     0.900000E-01   1.00800           0
     10909 MEMB     83       POPC     C26      CTL2    -0.180000       12.0110           0
     10910 MEMB     83       POPC     H6R      HAL2     0.900000E-01   1.00800           0
     10911 MEMB     83       POPC     H6S      HAL2     0.900000E-01   1.00800           0
     10912 MEMB     83       POPC     C27      CTL2    -0.180000       12.0110           0
     10913 MEMB     83       POPC     H7R      HAL2     0.900000E-01   1.00800           0
     10914 MEMB     83       POPC     H7S      HAL2     0.900000E-01   1.00800           0
     10915 MEMB     83       POPC     C28      CTL2    -0.180000       12.0110           0
     10916 MEMB     83       POPC     H8R      HAL2     0.900000E-01   1.00800           0
     10917 MEMB     83       POPC     H8S      HAL2     0.900000E-01   1.00800           0
     10918 MEMB     83       POPC     C29      CEL1    -0.150000       12.0110           0
     10919 MEMB     83       POPC     H91      HEL1     0.150000       1.00800           0
     10920 MEMB     83       POPC     C210     CEL1    -0.150000       12.0110           0
     10921 MEMB     83       POPC     H101     HEL1     0.150000       1.00800           0
     10922 MEMB     83       POPC     C211     CTL2    -0.180000       12.0110           0
     10923 MEMB     83       POPC     H11R     HAL2     0.900000E-01   1.00800           0
     10924 MEMB     83       POPC     H11S     HAL2     0.900000E-01   1.00800           0
     10925 MEMB     83       POPC     C212     CTL2    -0.180000       12.0110           0
     10926 MEMB     83       POPC     H12R     HAL2     0.900000E-01   1.00800           0
     10927 MEMB     83       POPC     H12S     HAL2     0.900000E-01   1.00800           0
     10928 MEMB     83       POPC     C213     CTL2    -0.180000       12.0110           0
     10929 MEMB     83       POPC     H13R     HAL2     0.900000E-01   1.00800           0
     10930 MEMB     83       POPC     H13S     HAL2     0.900000E-01   1.00800           0
     10931 MEMB     83       POPC     C214     CTL2    -0.180000       12.0110           0
     10932 MEMB     83       POPC     H14R     HAL2     0.900000E-01   1.00800           0
     10933 MEMB     83       POPC     H14S     HAL2     0.900000E-01   1.00800           0
     10934 MEMB     83       POPC     C215     CTL2    -0.180000       12.0110           0
     10935 MEMB     83       POPC     H15R     HAL2     0.900000E-01   1.00800           0
     10936 MEMB     83       POPC     H15S     HAL2     0.900000E-01   1.00800           0
     10937 MEMB     83       POPC     C216     CTL2    -0.180000       12.0110           0
     10938 MEMB     83       POPC     H16R     HAL2     0.900000E-01   1.00800           0
     10939 MEMB     83       POPC     H16S     HAL2     0.900000E-01   1.00800           0
     10940 MEMB     83       POPC     C217     CTL2    -0.180000       12.0110           0
     10941 MEMB     83       POPC     H17R     HAL2     0.900000E-01   1.00800           0
     10942 MEMB     83       POPC     H17S     HAL2     0.900000E-01   1.00800           0
     10943 MEMB     83       POPC     C218     CTL3    -0.270000       12.0110           0
     10944 MEMB     83       POPC     H18R     HAL3     0.900000E-01   1.00800           0
     10945 MEMB     83       POPC     H18S     HAL3     0.900000E-01   1.00800           0
     10946 MEMB     83       POPC     H18T     HAL3     0.900000E-01   1.00800           0
     10947 MEMB     83       POPC     C33      CTL2    -0.180000       12.0110           0
     10948 MEMB     83       POPC     H3X      HAL2     0.900000E-01   1.00800           0
     10949 MEMB     83       POPC     H3Y      HAL2     0.900000E-01   1.00800           0
     10950 MEMB     83       POPC     C34      CTL2    -0.180000       12.0110           0
     10951 MEMB     83       POPC     H4X      HAL2     0.900000E-01   1.00800           0
     10952 MEMB     83       POPC     H4Y      HAL2     0.900000E-01   1.00800           0
     10953 MEMB     83       POPC     C35      CTL2    -0.180000       12.0110           0
     10954 MEMB     83       POPC     H5X      HAL2     0.900000E-01   1.00800           0
     10955 MEMB     83       POPC     H5Y      HAL2     0.900000E-01   1.00800           0
     10956 MEMB     83       POPC     C36      CTL2    -0.180000       12.0110           0
     10957 MEMB     83       POPC     H6X      HAL2     0.900000E-01   1.00800           0
     10958 MEMB     83       POPC     H6Y      HAL2     0.900000E-01   1.00800           0
     10959 MEMB     83       POPC     C37      CTL2    -0.180000       12.0110           0
     10960 MEMB     83       POPC     H7X      HAL2     0.900000E-01   1.00800           0
     10961 MEMB     83       POPC     H7Y      HAL2     0.900000E-01   1.00800           0
     10962 MEMB     83       POPC     C38      CTL2    -0.180000       12.0110           0
     10963 MEMB     83       POPC     H8X      HAL2     0.900000E-01   1.00800           0
     10964 MEMB     83       POPC     H8Y      HAL2     0.900000E-01   1.00800           0
     10965 MEMB     83       POPC     C39      CTL2    -0.180000       12.0110           0
     10966 MEMB     83       POPC     H9X      HAL2     0.900000E-01   1.00800           0
     10967 MEMB     83       POPC     H9Y      HAL2     0.900000E-01   1.00800           0
     10968 MEMB     83       POPC     C310     CTL2    -0.180000       12.0110           0
     10969 MEMB     83       POPC     H10X     HAL2     0.900000E-01   1.00800           0
     10970 MEMB     83       POPC     H10Y     HAL2     0.900000E-01   1.00800           0
     10971 MEMB     83       POPC     C311     CTL2    -0.180000       12.0110           0
     10972 MEMB     83       POPC     H11X     HAL2     0.900000E-01   1.00800           0
     10973 MEMB     83       POPC     H11Y     HAL2     0.900000E-01   1.00800           0
     10974 MEMB     83       POPC     C312     CTL2    -0.180000       12.0110           0
     10975 MEMB     83       POPC     H12X     HAL2     0.900000E-01   1.00800           0
     10976 MEMB     83       POPC     H12Y     HAL2     0.900000E-01   1.00800           0
     10977 MEMB     83       POPC     C313     CTL2    -0.180000       12.0110           0
     10978 MEMB     83       POPC     H13X     HAL2     0.900000E-01   1.00800           0
     10979 MEMB     83       POPC     H13Y     HAL2     0.900000E-01   1.00800           0
     10980 MEMB     83       POPC     C314     CTL2    -0.180000       12.0110           0
     10981 MEMB     83       POPC     H14X     HAL2     0.900000E-01   1.00800           0
     10982 MEMB     83       POPC     H14Y     HAL2     0.900000E-01   1.00800           0
     10983 MEMB     83       POPC     C315     CTL2    -0.180000       12.0110           0
     10984 MEMB     83       POPC     H15X     HAL2     0.900000E-01   1.00800           0
     10985 MEMB     83       POPC     H15Y     HAL2     0.900000E-01   1.00800           0
     10986 MEMB     83       POPC     C316     CTL3    -0.270000       12.0110           0
     10987 MEMB     83       POPC     H16X     HAL3     0.900000E-01   1.00800           0
     10988 MEMB     83       POPC     H16Y     HAL3     0.900000E-01   1.00800           0
     10989 MEMB     83       POPC     H16Z     HAL3     0.900000E-01   1.00800           0
     10990 MEMB     84       POPC     N        NTL     -0.600000       14.0070           0
     10991 MEMB     84       POPC     C12      CTL2    -0.100000       12.0110           0
     10992 MEMB     84       POPC     H12A     HL       0.250000       1.00800           0
     10993 MEMB     84       POPC     H12B     HL       0.250000       1.00800           0
     10994 MEMB     84       POPC     C13      CTL5    -0.350000       12.0110           0
     10995 MEMB     84       POPC     H13A     HL       0.250000       1.00800           0
     10996 MEMB     84       POPC     H13B     HL       0.250000       1.00800           0
     10997 MEMB     84       POPC     H13C     HL       0.250000       1.00800           0
     10998 MEMB     84       POPC     C14      CTL5    -0.350000       12.0110           0
     10999 MEMB     84       POPC     H14A     HL       0.250000       1.00800           0
     11000 MEMB     84       POPC     H14B     HL       0.250000       1.00800           0
     11001 MEMB     84       POPC     H14C     HL       0.250000       1.00800           0
     11002 MEMB     84       POPC     C15      CTL5    -0.350000       12.0110           0
     11003 MEMB     84       POPC     H15A     HL       0.250000       1.00800           0
     11004 MEMB     84       POPC     H15B     HL       0.250000       1.00800           0
     11005 MEMB     84       POPC     H15C     HL       0.250000       1.00800           0
     11006 MEMB     84       POPC     C11      CTL2    -0.800000E-01   12.0110           0
     11007 MEMB     84       POPC     H11A     HAL2     0.900000E-01   1.00800           0
     11008 MEMB     84       POPC     H11B     HAL2     0.900000E-01   1.00800           0
     11009 MEMB     84       POPC     P        PL        1.50000       30.9740           0
     11010 MEMB     84       POPC     O13      O2L     -0.780000       15.9994           0
     11011 MEMB     84       POPC     O14      O2L     -0.780000       15.9994           0
     11012 MEMB     84       POPC     O12      OSLP    -0.570000       15.9994           0
     11013 MEMB     84       POPC     O11      OSLP    -0.570000       15.9994           0
     11014 MEMB     84       POPC     C1       CTL2    -0.800000E-01   12.0110           0
     11015 MEMB     84       POPC     HA       HAL2     0.900000E-01   1.00800           0
     11016 MEMB     84       POPC     HB       HAL2     0.900000E-01   1.00800           0
     11017 MEMB     84       POPC     C2       CTL1     0.170000       12.0110           0
     11018 MEMB     84       POPC     HS       HAL1     0.900000E-01   1.00800           0
     11019 MEMB     84       POPC     O21      OSL     -0.490000       15.9994           0
     11020 MEMB     84       POPC     C21      CL       0.900000       12.0110           0
     11021 MEMB     84       POPC     O22      OBL     -0.630000       15.9994           0
     11022 MEMB     84       POPC     C22      CTL2    -0.220000       12.0110           0
     11023 MEMB     84       POPC     H2R      HAL2     0.900000E-01   1.00800           0
     11024 MEMB     84       POPC     H2S      HAL2     0.900000E-01   1.00800           0
     11025 MEMB     84       POPC     C3       CTL2     0.800000E-01   12.0110           0
     11026 MEMB     84       POPC     HX       HAL2     0.900000E-01   1.00800           0
     11027 MEMB     84       POPC     HY       HAL2     0.900000E-01   1.00800           0
     11028 MEMB     84       POPC     O31      OSL     -0.490000       15.9994           0
     11029 MEMB     84       POPC     C31      CL       0.900000       12.0110           0
     11030 MEMB     84       POPC     O32      OBL     -0.630000       15.9994           0
     11031 MEMB     84       POPC     C32      CTL2    -0.220000       12.0110           0
     11032 MEMB     84       POPC     H2X      HAL2     0.900000E-01   1.00800           0
     11033 MEMB     84       POPC     H2Y      HAL2     0.900000E-01   1.00800           0
     11034 MEMB     84       POPC     C23      CTL2    -0.180000       12.0110           0
     11035 MEMB     84       POPC     H3R      HAL2     0.900000E-01   1.00800           0
     11036 MEMB     84       POPC     H3S      HAL2     0.900000E-01   1.00800           0
     11037 MEMB     84       POPC     C24      CTL2    -0.180000       12.0110           0
     11038 MEMB     84       POPC     H4R      HAL2     0.900000E-01   1.00800           0
     11039 MEMB     84       POPC     H4S      HAL2     0.900000E-01   1.00800           0
     11040 MEMB     84       POPC     C25      CTL2    -0.180000       12.0110           0
     11041 MEMB     84       POPC     H5R      HAL2     0.900000E-01   1.00800           0
     11042 MEMB     84       POPC     H5S      HAL2     0.900000E-01   1.00800           0
     11043 MEMB     84       POPC     C26      CTL2    -0.180000       12.0110           0
     11044 MEMB     84       POPC     H6R      HAL2     0.900000E-01   1.00800           0
     11045 MEMB     84       POPC     H6S      HAL2     0.900000E-01   1.00800           0
     11046 MEMB     84       POPC     C27      CTL2    -0.180000       12.0110           0
     11047 MEMB     84       POPC     H7R      HAL2     0.900000E-01   1.00800           0
     11048 MEMB     84       POPC     H7S      HAL2     0.900000E-01   1.00800           0
     11049 MEMB     84       POPC     C28      CTL2    -0.180000       12.0110           0
     11050 MEMB     84       POPC     H8R      HAL2     0.900000E-01   1.00800           0
     11051 MEMB     84       POPC     H8S      HAL2     0.900000E-01   1.00800           0
     11052 MEMB     84       POPC     C29      CEL1    -0.150000       12.0110           0
     11053 MEMB     84       POPC     H91      HEL1     0.150000       1.00800           0
     11054 MEMB     84       POPC     C210     CEL1    -0.150000       12.0110           0
     11055 MEMB     84       POPC     H101     HEL1     0.150000       1.00800           0
     11056 MEMB     84       POPC     C211     CTL2    -0.180000       12.0110           0
     11057 MEMB     84       POPC     H11R     HAL2     0.900000E-01   1.00800           0
     11058 MEMB     84       POPC     H11S     HAL2     0.900000E-01   1.00800           0
     11059 MEMB     84       POPC     C212     CTL2    -0.180000       12.0110           0
     11060 MEMB     84       POPC     H12R     HAL2     0.900000E-01   1.00800           0
     11061 MEMB     84       POPC     H12S     HAL2     0.900000E-01   1.00800           0
     11062 MEMB     84       POPC     C213     CTL2    -0.180000       12.0110           0
     11063 MEMB     84       POPC     H13R     HAL2     0.900000E-01   1.00800           0
     11064 MEMB     84       POPC     H13S     HAL2     0.900000E-01   1.00800           0
     11065 MEMB     84       POPC     C214     CTL2    -0.180000       12.0110           0
     11066 MEMB     84       POPC     H14R     HAL2     0.900000E-01   1.00800           0
     11067 MEMB     84       POPC     H14S     HAL2     0.900000E-01   1.00800           0
     11068 MEMB     84       POPC     C215     CTL2    -0.180000       12.0110           0
     11069 MEMB     84       POPC     H15R     HAL2     0.900000E-01   1.00800           0
     11070 MEMB     84       POPC     H15S     HAL2     0.900000E-01   1.00800           0
     11071 MEMB     84       POPC     C216     CTL2    -0.180000       12.0110           0
     11072 MEMB     84       POPC     H16R     HAL2     0.900000E-01   1.00800           0
     11073 MEMB     84       POPC     H16S     HAL2     0.900000E-01   1.00800           0
     11074 MEMB     84       POPC     C217     CTL2    -0.180000       12.0110           0
     11075 MEMB     84       POPC     H17R     HAL2     0.900000E-01   1.00800           0
     11076 MEMB     84       POPC     H17S     HAL2     0.900000E-01   1.00800           0
     11077 MEMB     84       POPC     C218     CTL3    -0.270000       12.0110           0
     11078 MEMB     84       POPC     H18R     HAL3     0.900000E-01   1.00800           0
     11079 MEMB     84       POPC     H18S     HAL3     0.900000E-01   1.00800           0
     11080 MEMB     84       POPC     H18T     HAL3     0.900000E-01   1.00800           0
     11081 MEMB     84       POPC     C33      CTL2    -0.180000       12.0110           0
     11082 MEMB     84       POPC     H3X      HAL2     0.900000E-01   1.00800           0
     11083 MEMB     84       POPC     H3Y      HAL2     0.900000E-01   1.00800           0
     11084 MEMB     84       POPC     C34      CTL2    -0.180000       12.0110           0
     11085 MEMB     84       POPC     H4X      HAL2     0.900000E-01   1.00800           0
     11086 MEMB     84       POPC     H4Y      HAL2     0.900000E-01   1.00800           0
     11087 MEMB     84       POPC     C35      CTL2    -0.180000       12.0110           0
     11088 MEMB     84       POPC     H5X      HAL2     0.900000E-01   1.00800           0
     11089 MEMB     84       POPC     H5Y      HAL2     0.900000E-01   1.00800           0
     11090 MEMB     84       POPC     C36      CTL2    -0.180000       12.0110           0
     11091 MEMB     84       POPC     H6X      HAL2     0.900000E-01   1.00800           0
     11092 MEMB     84       POPC     H6Y      HAL2     0.900000E-01   1.00800           0
     11093 MEMB     84       POPC     C37      CTL2    -0.180000       12.0110           0
     11094 MEMB     84       POPC     H7X      HAL2     0.900000E-01   1.00800           0
     11095 MEMB     84       POPC     H7Y      HAL2     0.900000E-01   1.00800           0
     11096 MEMB     84       POPC     C38      CTL2    -0.180000       12.0110           0
     11097 MEMB     84       POPC     H8X      HAL2     0.900000E-01   1.00800           0
     11098 MEMB     84       POPC     H8Y      HAL2     0.900000E-01   1.00800           0
     11099 MEMB     84       POPC     C39      CTL2    -0.180000       12.0110           0
     11100 MEMB     84       POPC     H9X      HAL2     0.900000E-01   1.00800           0
     11101 MEMB     84       POPC     H9Y      HAL2     0.900000E-01   1.00800           0
     11102 MEMB     84       POPC     C310     CTL2    -0.180000       12.0110           0
     11103 MEMB     84       POPC     H10X     HAL2     0.900000E-01   1.00800           0
     11104 MEMB     84       POPC     H10Y     HAL2     0.900000E-01   1.00800           0
     11105 MEMB     84       POPC     C311     CTL2    -0.180000       12.0110           0
     11106 MEMB     84       POPC     H11X     HAL2     0.900000E-01   1.00800           0
     11107 MEMB     84       POPC     H11Y     HAL2     0.900000E-01   1.00800           0
     11108 MEMB     84       POPC     C312     CTL2    -0.180000       12.0110           0
     11109 MEMB     84       POPC     H12X     HAL2     0.900000E-01   1.00800           0
     11110 MEMB     84       POPC     H12Y     HAL2     0.900000E-01   1.00800           0
     11111 MEMB     84       POPC     C313     CTL2    -0.180000       12.0110           0
     11112 MEMB     84       POPC     H13X     HAL2     0.900000E-01   1.00800           0
     11113 MEMB     84       POPC     H13Y     HAL2     0.900000E-01   1.00800           0
     11114 MEMB     84       POPC     C314     CTL2    -0.180000       12.0110           0
     11115 MEMB     84       POPC     H14X     HAL2     0.900000E-01   1.00800           0
     11116 MEMB     84       POPC     H14Y     HAL2     0.900000E-01   1.00800           0
     11117 MEMB     84       POPC     C315     CTL2    -0.180000       12.0110           0
     11118 MEMB     84       POPC     H15X     HAL2     0.900000E-01   1.00800           0
     11119 MEMB     84       POPC     H15Y     HAL2     0.900000E-01   1.00800           0
     11120 MEMB     84       POPC     C316     CTL3    -0.270000       12.0110           0
     11121 MEMB     84       POPC     H16X     HAL3     0.900000E-01   1.00800           0
     11122 MEMB     84       POPC     H16Y     HAL3     0.900000E-01   1.00800           0
     11123 MEMB     84       POPC     H16Z     HAL3     0.900000E-01   1.00800           0
     11124 MEMB     85       POPC     N        NTL     -0.600000       14.0070           0
     11125 MEMB     85       POPC     C12      CTL2    -0.100000       12.0110           0
     11126 MEMB     85       POPC     H12A     HL       0.250000       1.00800           0
     11127 MEMB     85       POPC     H12B     HL       0.250000       1.00800           0
     11128 MEMB     85       POPC     C13      CTL5    -0.350000       12.0110           0
     11129 MEMB     85       POPC     H13A     HL       0.250000       1.00800           0
     11130 MEMB     85       POPC     H13B     HL       0.250000       1.00800           0
     11131 MEMB     85       POPC     H13C     HL       0.250000       1.00800           0
     11132 MEMB     85       POPC     C14      CTL5    -0.350000       12.0110           0
     11133 MEMB     85       POPC     H14A     HL       0.250000       1.00800           0
     11134 MEMB     85       POPC     H14B     HL       0.250000       1.00800           0
     11135 MEMB     85       POPC     H14C     HL       0.250000       1.00800           0
     11136 MEMB     85       POPC     C15      CTL5    -0.350000       12.0110           0
     11137 MEMB     85       POPC     H15A     HL       0.250000       1.00800           0
     11138 MEMB     85       POPC     H15B     HL       0.250000       1.00800           0
     11139 MEMB     85       POPC     H15C     HL       0.250000       1.00800           0
     11140 MEMB     85       POPC     C11      CTL2    -0.800000E-01   12.0110           0
     11141 MEMB     85       POPC     H11A     HAL2     0.900000E-01   1.00800           0
     11142 MEMB     85       POPC     H11B     HAL2     0.900000E-01   1.00800           0
     11143 MEMB     85       POPC     P        PL        1.50000       30.9740           0
     11144 MEMB     85       POPC     O13      O2L     -0.780000       15.9994           0
     11145 MEMB     85       POPC     O14      O2L     -0.780000       15.9994           0
     11146 MEMB     85       POPC     O12      OSLP    -0.570000       15.9994           0
     11147 MEMB     85       POPC     O11      OSLP    -0.570000       15.9994           0
     11148 MEMB     85       POPC     C1       CTL2    -0.800000E-01   12.0110           0
     11149 MEMB     85       POPC     HA       HAL2     0.900000E-01   1.00800           0
     11150 MEMB     85       POPC     HB       HAL2     0.900000E-01   1.00800           0
     11151 MEMB     85       POPC     C2       CTL1     0.170000       12.0110           0
     11152 MEMB     85       POPC     HS       HAL1     0.900000E-01   1.00800           0
     11153 MEMB     85       POPC     O21      OSL     -0.490000       15.9994           0
     11154 MEMB     85       POPC     C21      CL       0.900000       12.0110           0
     11155 MEMB     85       POPC     O22      OBL     -0.630000       15.9994           0
     11156 MEMB     85       POPC     C22      CTL2    -0.220000       12.0110           0
     11157 MEMB     85       POPC     H2R      HAL2     0.900000E-01   1.00800           0
     11158 MEMB     85       POPC     H2S      HAL2     0.900000E-01   1.00800           0
     11159 MEMB     85       POPC     C3       CTL2     0.800000E-01   12.0110           0
     11160 MEMB     85       POPC     HX       HAL2     0.900000E-01   1.00800           0
     11161 MEMB     85       POPC     HY       HAL2     0.900000E-01   1.00800           0
     11162 MEMB     85       POPC     O31      OSL     -0.490000       15.9994           0
     11163 MEMB     85       POPC     C31      CL       0.900000       12.0110           0
     11164 MEMB     85       POPC     O32      OBL     -0.630000       15.9994           0
     11165 MEMB     85       POPC     C32      CTL2    -0.220000       12.0110           0
     11166 MEMB     85       POPC     H2X      HAL2     0.900000E-01   1.00800           0
     11167 MEMB     85       POPC     H2Y      HAL2     0.900000E-01   1.00800           0
     11168 MEMB     85       POPC     C23      CTL2    -0.180000       12.0110           0
     11169 MEMB     85       POPC     H3R      HAL2     0.900000E-01   1.00800           0
     11170 MEMB     85       POPC     H3S      HAL2     0.900000E-01   1.00800           0
     11171 MEMB     85       POPC     C24      CTL2    -0.180000       12.0110           0
     11172 MEMB     85       POPC     H4R      HAL2     0.900000E-01   1.00800           0
     11173 MEMB     85       POPC     H4S      HAL2     0.900000E-01   1.00800           0
     11174 MEMB     85       POPC     C25      CTL2    -0.180000       12.0110           0
     11175 MEMB     85       POPC     H5R      HAL2     0.900000E-01   1.00800           0
     11176 MEMB     85       POPC     H5S      HAL2     0.900000E-01   1.00800           0
     11177 MEMB     85       POPC     C26      CTL2    -0.180000       12.0110           0
     11178 MEMB     85       POPC     H6R      HAL2     0.900000E-01   1.00800           0
     11179 MEMB     85       POPC     H6S      HAL2     0.900000E-01   1.00800           0
     11180 MEMB     85       POPC     C27      CTL2    -0.180000       12.0110           0
     11181 MEMB     85       POPC     H7R      HAL2     0.900000E-01   1.00800           0
     11182 MEMB     85       POPC     H7S      HAL2     0.900000E-01   1.00800           0
     11183 MEMB     85       POPC     C28      CTL2    -0.180000       12.0110           0
     11184 MEMB     85       POPC     H8R      HAL2     0.900000E-01   1.00800           0
     11185 MEMB     85       POPC     H8S      HAL2     0.900000E-01   1.00800           0
     11186 MEMB     85       POPC     C29      CEL1    -0.150000       12.0110           0
     11187 MEMB     85       POPC     H91      HEL1     0.150000       1.00800           0
     11188 MEMB     85       POPC     C210     CEL1    -0.150000       12.0110           0
     11189 MEMB     85       POPC     H101     HEL1     0.150000       1.00800           0
     11190 MEMB     85       POPC     C211     CTL2    -0.180000       12.0110           0
     11191 MEMB     85       POPC     H11R     HAL2     0.900000E-01   1.00800           0
     11192 MEMB     85       POPC     H11S     HAL2     0.900000E-01   1.00800           0
     11193 MEMB     85       POPC     C212     CTL2    -0.180000       12.0110           0
     11194 MEMB     85       POPC     H12R     HAL2     0.900000E-01   1.00800           0
     11195 MEMB     85       POPC     H12S     HAL2     0.900000E-01   1.00800           0
     11196 MEMB     85       POPC     C213     CTL2    -0.180000       12.0110           0
     11197 MEMB     85       POPC     H13R     HAL2     0.900000E-01   1.00800           0
     11198 MEMB     85       POPC     H13S     HAL2     0.900000E-01   1.00800           0
     11199 MEMB     85       POPC     C214     CTL2    -0.180000       12.0110           0
     11200 MEMB     85       POPC     H14R     HAL2     0.900000E-01   1.00800           0
     11201 MEMB     85       POPC     H14S     HAL2     0.900000E-01   1.00800           0
     11202 MEMB     85       POPC     C215     CTL2    -0.180000       12.0110           0
     11203 MEMB     85       POPC     H15R     HAL2     0.900000E-01   1.00800           0
     11204 MEMB     85       POPC     H15S     HAL2     0.900000E-01   1.00800           0
     11205 MEMB     85       POPC     C216     CTL2    -0.180000       12.0110           0
     11206 MEMB     85       POPC     H16R     HAL2     0.900000E-01   1.00800           0
     11207 MEMB     85       POPC     H16S     HAL2     0.900000E-01   1.00800           0
     11208 MEMB     85       POPC     C217     CTL2    -0.180000       12.0110           0
     11209 MEMB     85       POPC     H17R     HAL2     0.900000E-01   1.00800           0
     11210 MEMB     85       POPC     H17S     HAL2     0.900000E-01   1.00800           0
     11211 MEMB     85       POPC     C218     CTL3    -0.270000       12.0110           0
     11212 MEMB     85       POPC     H18R     HAL3     0.900000E-01   1.00800           0
     11213 MEMB     85       POPC     H18S     HAL3     0.900000E-01   1.00800           0
     11214 MEMB     85       POPC     H18T     HAL3     0.900000E-01   1.00800           0
     11215 MEMB     85       POPC     C33      CTL2    -0.180000       12.0110           0
     11216 MEMB     85       POPC     H3X      HAL2     0.900000E-01   1.00800           0
     11217 MEMB     85       POPC     H3Y      HAL2     0.900000E-01   1.00800           0
     11218 MEMB     85       POPC     C34      CTL2    -0.180000       12.0110           0
     11219 MEMB     85       POPC     H4X      HAL2     0.900000E-01   1.00800           0
     11220 MEMB     85       POPC     H4Y      HAL2     0.900000E-01   1.00800           0
     11221 MEMB     85       POPC     C35      CTL2    -0.180000       12.0110           0
     11222 MEMB     85       POPC     H5X      HAL2     0.900000E-01   1.00800           0
     11223 MEMB     85       POPC     H5Y      HAL2     0.900000E-01   1.00800           0
     11224 MEMB     85       POPC     C36      CTL2    -0.180000       12.0110           0
     11225 MEMB     85       POPC     H6X      HAL2     0.900000E-01   1.00800           0
     11226 MEMB     85       POPC     H6Y      HAL2     0.900000E-01   1.00800           0
     11227 MEMB     85       POPC     C37      CTL2    -0.180000       12.0110           0
     11228 MEMB     85       POPC     H7X      HAL2     0.900000E-01   1.00800           0
     11229 MEMB     85       POPC     H7Y      HAL2     0.900000E-01   1.00800           0
     11230 MEMB     85       POPC     C38      CTL2    -0.180000       12.0110           0
     11231 MEMB     85       POPC     H8X      HAL2     0.900000E-01   1.00800           0
     11232 MEMB     85       POPC     H8Y      HAL2     0.900000E-01   1.00800           0
     11233 MEMB     85       POPC     C39      CTL2    -0.180000       12.0110           0
     11234 MEMB     85       POPC     H9X      HAL2     0.900000E-01   1.00800           0
     11235 MEMB     85       POPC     H9Y      HAL2     0.900000E-01   1.00800           0
     11236 MEMB     85       POPC     C310     CTL2    -0.180000       12.0110           0
     11237 MEMB     85       POPC     H10X     HAL2     0.900000E-01   1.00800           0
     11238 MEMB     85       POPC     H10Y     HAL2     0.900000E-01   1.00800           0
     11239 MEMB     85       POPC     C311     CTL2    -0.180000       12.0110           0
     11240 MEMB     85       POPC     H11X     HAL2     0.900000E-01   1.00800           0
     11241 MEMB     85       POPC     H11Y     HAL2     0.900000E-01   1.00800           0
     11242 MEMB     85       POPC     C312     CTL2    -0.180000       12.0110           0
     11243 MEMB     85       POPC     H12X     HAL2     0.900000E-01   1.00800           0
     11244 MEMB     85       POPC     H12Y     HAL2     0.900000E-01   1.00800           0
     11245 MEMB     85       POPC     C313     CTL2    -0.180000       12.0110           0
     11246 MEMB     85       POPC     H13X     HAL2     0.900000E-01   1.00800           0
     11247 MEMB     85       POPC     H13Y     HAL2     0.900000E-01   1.00800           0
     11248 MEMB     85       POPC     C314     CTL2    -0.180000       12.0110           0
     11249 MEMB     85       POPC     H14X     HAL2     0.900000E-01   1.00800           0
     11250 MEMB     85       POPC     H14Y     HAL2     0.900000E-01   1.00800           0
     11251 MEMB     85       POPC     C315     CTL2    -0.180000       12.0110           0
     11252 MEMB     85       POPC     H15X     HAL2     0.900000E-01   1.00800           0
     11253 MEMB     85       POPC     H15Y     HAL2     0.900000E-01   1.00800           0
     11254 MEMB     85       POPC     C316     CTL3    -0.270000       12.0110           0
     11255 MEMB     85       POPC     H16X     HAL3     0.900000E-01   1.00800           0
     11256 MEMB     85       POPC     H16Y     HAL3     0.900000E-01   1.00800           0
     11257 MEMB     85       POPC     H16Z     HAL3     0.900000E-01   1.00800           0
     11258 MEMB     86       POPS     N        NH3L    -0.300000       14.0070           0
     11259 MEMB     86       POPS     HN1      HCL      0.330000       1.00800           0
     11260 MEMB     86       POPS     HN2      HCL      0.330000       1.00800           0
     11261 MEMB     86       POPS     HN3      HCL      0.330000       1.00800           0
     11262 MEMB     86       POPS     C12      CTL1     0.210000       12.0110           0
     11263 MEMB     86       POPS     H12A     HBL      0.100000       1.00800           0
     11264 MEMB     86       POPS     C13      CCL      0.340000       12.0110           0
     11265 MEMB     86       POPS     O13A     OCL     -0.670000       15.9994           0
     11266 MEMB     86       POPS     O13B     OCL     -0.670000       15.9994           0
     11267 MEMB     86       POPS     C11      CTL2    -0.800000E-01   12.0110           0
     11268 MEMB     86       POPS     H11A     HAL2     0.900000E-01   1.00800           0
     11269 MEMB     86       POPS     H11B     HAL2     0.900000E-01   1.00800           0
     11270 MEMB     86       POPS     P        PL        1.50000       30.9740           0
     11271 MEMB     86       POPS     O13      O2L     -0.780000       15.9994           0
     11272 MEMB     86       POPS     O14      O2L     -0.780000       15.9994           0
     11273 MEMB     86       POPS     O12      OSLP    -0.570000       15.9994           0
     11274 MEMB     86       POPS     O11      OSLP    -0.570000       15.9994           0
     11275 MEMB     86       POPS     C1       CTL2    -0.800000E-01   12.0110           0
     11276 MEMB     86       POPS     HA       HAL2     0.900000E-01   1.00800           0
     11277 MEMB     86       POPS     HB       HAL2     0.900000E-01   1.00800           0
     11278 MEMB     86       POPS     C2       CTL1     0.170000       12.0110           0
     11279 MEMB     86       POPS     HS       HAL1     0.900000E-01   1.00800           0
     11280 MEMB     86       POPS     O21      OSL     -0.490000       15.9994           0
     11281 MEMB     86       POPS     C21      CL       0.900000       12.0110           0
     11282 MEMB     86       POPS     O22      OBL     -0.630000       15.9994           0
     11283 MEMB     86       POPS     C22      CTL2    -0.220000       12.0110           0
     11284 MEMB     86       POPS     H2R      HAL2     0.900000E-01   1.00800           0
     11285 MEMB     86       POPS     H2S      HAL2     0.900000E-01   1.00800           0
     11286 MEMB     86       POPS     C3       CTL2     0.800000E-01   12.0110           0
     11287 MEMB     86       POPS     HX       HAL2     0.900000E-01   1.00800           0
     11288 MEMB     86       POPS     HY       HAL2     0.900000E-01   1.00800           0
     11289 MEMB     86       POPS     O31      OSL     -0.490000       15.9994           0
     11290 MEMB     86       POPS     C31      CL       0.900000       12.0110           0
     11291 MEMB     86       POPS     O32      OBL     -0.630000       15.9994           0
     11292 MEMB     86       POPS     C32      CTL2    -0.220000       12.0110           0
     11293 MEMB     86       POPS     H2X      HAL2     0.900000E-01   1.00800           0
     11294 MEMB     86       POPS     H2Y      HAL2     0.900000E-01   1.00800           0
     11295 MEMB     86       POPS     C23      CTL2    -0.180000       12.0110           0
     11296 MEMB     86       POPS     H3R      HAL2     0.900000E-01   1.00800           0
     11297 MEMB     86       POPS     H3S      HAL2     0.900000E-01   1.00800           0
     11298 MEMB     86       POPS     C24      CTL2    -0.180000       12.0110           0
     11299 MEMB     86       POPS     H4R      HAL2     0.900000E-01   1.00800           0
     11300 MEMB     86       POPS     H4S      HAL2     0.900000E-01   1.00800           0
     11301 MEMB     86       POPS     C25      CTL2    -0.180000       12.0110           0
     11302 MEMB     86       POPS     H5R      HAL2     0.900000E-01   1.00800           0
     11303 MEMB     86       POPS     H5S      HAL2     0.900000E-01   1.00800           0
     11304 MEMB     86       POPS     C26      CTL2    -0.180000       12.0110           0
     11305 MEMB     86       POPS     H6R      HAL2     0.900000E-01   1.00800           0
     11306 MEMB     86       POPS     H6S      HAL2     0.900000E-01   1.00800           0
     11307 MEMB     86       POPS     C27      CTL2    -0.180000       12.0110           0
     11308 MEMB     86       POPS     H7R      HAL2     0.900000E-01   1.00800           0
     11309 MEMB     86       POPS     H7S      HAL2     0.900000E-01   1.00800           0
     11310 MEMB     86       POPS     C28      CTL2    -0.180000       12.0110           0
     11311 MEMB     86       POPS     H8R      HAL2     0.900000E-01   1.00800           0
     11312 MEMB     86       POPS     H8S      HAL2     0.900000E-01   1.00800           0
     11313 MEMB     86       POPS     C29      CEL1    -0.150000       12.0110           0
     11314 MEMB     86       POPS     H91      HEL1     0.150000       1.00800           0
     11315 MEMB     86       POPS     C210     CEL1    -0.150000       12.0110           0
     11316 MEMB     86       POPS     H101     HEL1     0.150000       1.00800           0
     11317 MEMB     86       POPS     C211     CTL2    -0.180000       12.0110           0
     11318 MEMB     86       POPS     H11R     HAL2     0.900000E-01   1.00800           0
     11319 MEMB     86       POPS     H11S     HAL2     0.900000E-01   1.00800           0
     11320 MEMB     86       POPS     C212     CTL2    -0.180000       12.0110           0
     11321 MEMB     86       POPS     H12R     HAL2     0.900000E-01   1.00800           0
     11322 MEMB     86       POPS     H12S     HAL2     0.900000E-01   1.00800           0
     11323 MEMB     86       POPS     C213     CTL2    -0.180000       12.0110           0
     11324 MEMB     86       POPS     H13R     HAL2     0.900000E-01   1.00800           0
     11325 MEMB     86       POPS     H13S     HAL2     0.900000E-01   1.00800           0
     11326 MEMB     86       POPS     C214     CTL2    -0.180000       12.0110           0
     11327 MEMB     86       POPS     H14R     HAL2     0.900000E-01   1.00800           0
     11328 MEMB     86       POPS     H14S     HAL2     0.900000E-01   1.00800           0
     11329 MEMB     86       POPS     C215     CTL2    -0.180000       12.0110           0
     11330 MEMB     86       POPS     H15R     HAL2     0.900000E-01   1.00800           0
     11331 MEMB     86       POPS     H15S     HAL2     0.900000E-01   1.00800           0
     11332 MEMB     86       POPS     C216     CTL2    -0.180000       12.0110           0
     11333 MEMB     86       POPS     H16R     HAL2     0.900000E-01   1.00800           0
     11334 MEMB     86       POPS     H16S     HAL2     0.900000E-01   1.00800           0
     11335 MEMB     86       POPS     C217     CTL2    -0.180000       12.0110           0
     11336 MEMB     86       POPS     H17R     HAL2     0.900000E-01   1.00800           0
     11337 MEMB     86       POPS     H17S     HAL2     0.900000E-01   1.00800           0
     11338 MEMB     86       POPS     C218     CTL3    -0.270000       12.0110           0
     11339 MEMB     86       POPS     H18R     HAL3     0.900000E-01   1.00800           0
     11340 MEMB     86       POPS     H18S     HAL3     0.900000E-01   1.00800           0
     11341 MEMB     86       POPS     H18T     HAL3     0.900000E-01   1.00800           0
     11342 MEMB     86       POPS     C33      CTL2    -0.180000       12.0110           0
     11343 MEMB     86       POPS     H3X      HAL2     0.900000E-01   1.00800           0
     11344 MEMB     86       POPS     H3Y      HAL2     0.900000E-01   1.00800           0
     11345 MEMB     86       POPS     C34      CTL2    -0.180000       12.0110           0
     11346 MEMB     86       POPS     H4X      HAL2     0.900000E-01   1.00800           0
     11347 MEMB     86       POPS     H4Y      HAL2     0.900000E-01   1.00800           0
     11348 MEMB     86       POPS     C35      CTL2    -0.180000       12.0110           0
     11349 MEMB     86       POPS     H5X      HAL2     0.900000E-01   1.00800           0
     11350 MEMB     86       POPS     H5Y      HAL2     0.900000E-01   1.00800           0
     11351 MEMB     86       POPS     C36      CTL2    -0.180000       12.0110           0
     11352 MEMB     86       POPS     H6X      HAL2     0.900000E-01   1.00800           0
     11353 MEMB     86       POPS     H6Y      HAL2     0.900000E-01   1.00800           0
     11354 MEMB     86       POPS     C37      CTL2    -0.180000       12.0110           0
     11355 MEMB     86       POPS     H7X      HAL2     0.900000E-01   1.00800           0
     11356 MEMB     86       POPS     H7Y      HAL2     0.900000E-01   1.00800           0
     11357 MEMB     86       POPS     C38      CTL2    -0.180000       12.0110           0
     11358 MEMB     86       POPS     H8X      HAL2     0.900000E-01   1.00800           0
     11359 MEMB     86       POPS     H8Y      HAL2     0.900000E-01   1.00800           0
     11360 MEMB     86       POPS     C39      CTL2    -0.180000       12.0110           0
     11361 MEMB     86       POPS     H9X      HAL2     0.900000E-01   1.00800           0
     11362 MEMB     86       POPS     H9Y      HAL2     0.900000E-01   1.00800           0
     11363 MEMB     86       POPS     C310     CTL2    -0.180000       12.0110           0
     11364 MEMB     86       POPS     H10X     HAL2     0.900000E-01   1.00800           0
     11365 MEMB     86       POPS     H10Y     HAL2     0.900000E-01   1.00800           0
     11366 MEMB     86       POPS     C311     CTL2    -0.180000       12.0110           0
     11367 MEMB     86       POPS     H11X     HAL2     0.900000E-01   1.00800           0
     11368 MEMB     86       POPS     H11Y     HAL2     0.900000E-01   1.00800           0
     11369 MEMB     86       POPS     C312     CTL2    -0.180000       12.0110           0
     11370 MEMB     86       POPS     H12X     HAL2     0.900000E-01   1.00800           0
     11371 MEMB     86       POPS     H12Y     HAL2     0.900000E-01   1.00800           0
     11372 MEMB     86       POPS     C313     CTL2    -0.180000       12.0110           0
     11373 MEMB     86       POPS     H13X     HAL2     0.900000E-01   1.00800           0
     11374 MEMB     86       POPS     H13Y     HAL2     0.900000E-01   1.00800           0
     11375 MEMB     86       POPS     C314     CTL2    -0.180000       12.0110           0
     11376 MEMB     86       POPS     H14X     HAL2     0.900000E-01   1.00800           0
     11377 MEMB     86       POPS     H14Y     HAL2     0.900000E-01   1.00800           0
     11378 MEMB     86       POPS     C315     CTL2    -0.180000       12.0110           0
     11379 MEMB     86       POPS     H15X     HAL2     0.900000E-01   1.00800           0
     11380 MEMB     86       POPS     H15Y     HAL2     0.900000E-01   1.00800           0
     11381 MEMB     86       POPS     C316     CTL3    -0.270000       12.0110           0
     11382 MEMB     86       POPS     H16X     HAL3     0.900000E-01   1.00800           0
     11383 MEMB     86       POPS     H16Y     HAL3     0.900000E-01   1.00800           0
     11384 MEMB     86       POPS     H16Z     HAL3     0.900000E-01   1.00800           0
     11385 MEMB     87       POPC     N        NTL     -0.600000       14.0070           0
     11386 MEMB     87       POPC     C12      CTL2    -0.100000       12.0110           0
     11387 MEMB     87       POPC     H12A     HL       0.250000       1.00800           0
     11388 MEMB     87       POPC     H12B     HL       0.250000       1.00800           0
     11389 MEMB     87       POPC     C13      CTL5    -0.350000       12.0110           0
     11390 MEMB     87       POPC     H13A     HL       0.250000       1.00800           0
     11391 MEMB     87       POPC     H13B     HL       0.250000       1.00800           0
     11392 MEMB     87       POPC     H13C     HL       0.250000       1.00800           0
     11393 MEMB     87       POPC     C14      CTL5    -0.350000       12.0110           0
     11394 MEMB     87       POPC     H14A     HL       0.250000       1.00800           0
     11395 MEMB     87       POPC     H14B     HL       0.250000       1.00800           0
     11396 MEMB     87       POPC     H14C     HL       0.250000       1.00800           0
     11397 MEMB     87       POPC     C15      CTL5    -0.350000       12.0110           0
     11398 MEMB     87       POPC     H15A     HL       0.250000       1.00800           0
     11399 MEMB     87       POPC     H15B     HL       0.250000       1.00800           0
     11400 MEMB     87       POPC     H15C     HL       0.250000       1.00800           0
     11401 MEMB     87       POPC     C11      CTL2    -0.800000E-01   12.0110           0
     11402 MEMB     87       POPC     H11A     HAL2     0.900000E-01   1.00800           0
     11403 MEMB     87       POPC     H11B     HAL2     0.900000E-01   1.00800           0
     11404 MEMB     87       POPC     P        PL        1.50000       30.9740           0
     11405 MEMB     87       POPC     O13      O2L     -0.780000       15.9994           0
     11406 MEMB     87       POPC     O14      O2L     -0.780000       15.9994           0
     11407 MEMB     87       POPC     O12      OSLP    -0.570000       15.9994           0
     11408 MEMB     87       POPC     O11      OSLP    -0.570000       15.9994           0
     11409 MEMB     87       POPC     C1       CTL2    -0.800000E-01   12.0110           0
     11410 MEMB     87       POPC     HA       HAL2     0.900000E-01   1.00800           0
     11411 MEMB     87       POPC     HB       HAL2     0.900000E-01   1.00800           0
     11412 MEMB     87       POPC     C2       CTL1     0.170000       12.0110           0
     11413 MEMB     87       POPC     HS       HAL1     0.900000E-01   1.00800           0
     11414 MEMB     87       POPC     O21      OSL     -0.490000       15.9994           0
     11415 MEMB     87       POPC     C21      CL       0.900000       12.0110           0
     11416 MEMB     87       POPC     O22      OBL     -0.630000       15.9994           0
     11417 MEMB     87       POPC     C22      CTL2    -0.220000       12.0110           0
     11418 MEMB     87       POPC     H2R      HAL2     0.900000E-01   1.00800           0
     11419 MEMB     87       POPC     H2S      HAL2     0.900000E-01   1.00800           0
     11420 MEMB     87       POPC     C3       CTL2     0.800000E-01   12.0110           0
     11421 MEMB     87       POPC     HX       HAL2     0.900000E-01   1.00800           0
     11422 MEMB     87       POPC     HY       HAL2     0.900000E-01   1.00800           0
     11423 MEMB     87       POPC     O31      OSL     -0.490000       15.9994           0
     11424 MEMB     87       POPC     C31      CL       0.900000       12.0110           0
     11425 MEMB     87       POPC     O32      OBL     -0.630000       15.9994           0
     11426 MEMB     87       POPC     C32      CTL2    -0.220000       12.0110           0
     11427 MEMB     87       POPC     H2X      HAL2     0.900000E-01   1.00800           0
     11428 MEMB     87       POPC     H2Y      HAL2     0.900000E-01   1.00800           0
     11429 MEMB     87       POPC     C23      CTL2    -0.180000       12.0110           0
     11430 MEMB     87       POPC     H3R      HAL2     0.900000E-01   1.00800           0
     11431 MEMB     87       POPC     H3S      HAL2     0.900000E-01   1.00800           0
     11432 MEMB     87       POPC     C24      CTL2    -0.180000       12.0110           0
     11433 MEMB     87       POPC     H4R      HAL2     0.900000E-01   1.00800           0
     11434 MEMB     87       POPC     H4S      HAL2     0.900000E-01   1.00800           0
     11435 MEMB     87       POPC     C25      CTL2    -0.180000       12.0110           0
     11436 MEMB     87       POPC     H5R      HAL2     0.900000E-01   1.00800           0
     11437 MEMB     87       POPC     H5S      HAL2     0.900000E-01   1.00800           0
     11438 MEMB     87       POPC     C26      CTL2    -0.180000       12.0110           0
     11439 MEMB     87       POPC     H6R      HAL2     0.900000E-01   1.00800           0
     11440 MEMB     87       POPC     H6S      HAL2     0.900000E-01   1.00800           0
     11441 MEMB     87       POPC     C27      CTL2    -0.180000       12.0110           0
     11442 MEMB     87       POPC     H7R      HAL2     0.900000E-01   1.00800           0
     11443 MEMB     87       POPC     H7S      HAL2     0.900000E-01   1.00800           0
     11444 MEMB     87       POPC     C28      CTL2    -0.180000       12.0110           0
     11445 MEMB     87       POPC     H8R      HAL2     0.900000E-01   1.00800           0
     11446 MEMB     87       POPC     H8S      HAL2     0.900000E-01   1.00800           0
     11447 MEMB     87       POPC     C29      CEL1    -0.150000       12.0110           0
     11448 MEMB     87       POPC     H91      HEL1     0.150000       1.00800           0
     11449 MEMB     87       POPC     C210     CEL1    -0.150000       12.0110           0
     11450 MEMB     87       POPC     H101     HEL1     0.150000       1.00800           0
     11451 MEMB     87       POPC     C211     CTL2    -0.180000       12.0110           0
     11452 MEMB     87       POPC     H11R     HAL2     0.900000E-01   1.00800           0
     11453 MEMB     87       POPC     H11S     HAL2     0.900000E-01   1.00800           0
     11454 MEMB     87       POPC     C212     CTL2    -0.180000       12.0110           0
     11455 MEMB     87       POPC     H12R     HAL2     0.900000E-01   1.00800           0
     11456 MEMB     87       POPC     H12S     HAL2     0.900000E-01   1.00800           0
     11457 MEMB     87       POPC     C213     CTL2    -0.180000       12.0110           0
     11458 MEMB     87       POPC     H13R     HAL2     0.900000E-01   1.00800           0
     11459 MEMB     87       POPC     H13S     HAL2     0.900000E-01   1.00800           0
     11460 MEMB     87       POPC     C214     CTL2    -0.180000       12.0110           0
     11461 MEMB     87       POPC     H14R     HAL2     0.900000E-01   1.00800           0
     11462 MEMB     87       POPC     H14S     HAL2     0.900000E-01   1.00800           0
     11463 MEMB     87       POPC     C215     CTL2    -0.180000       12.0110           0
     11464 MEMB     87       POPC     H15R     HAL2     0.900000E-01   1.00800           0
     11465 MEMB     87       POPC     H15S     HAL2     0.900000E-01   1.00800           0
     11466 MEMB     87       POPC     C216     CTL2    -0.180000       12.0110           0
     11467 MEMB     87       POPC     H16R     HAL2     0.900000E-01   1.00800           0
     11468 MEMB     87       POPC     H16S     HAL2     0.900000E-01   1.00800           0
     11469 MEMB     87       POPC     C217     CTL2    -0.180000       12.0110           0
     11470 MEMB     87       POPC     H17R     HAL2     0.900000E-01   1.00800           0
     11471 MEMB     87       POPC     H17S     HAL2     0.900000E-01   1.00800           0
     11472 MEMB     87       POPC     C218     CTL3    -0.270000       12.0110           0
     11473 MEMB     87       POPC     H18R     HAL3     0.900000E-01   1.00800           0
     11474 MEMB     87       POPC     H18S     HAL3     0.900000E-01   1.00800           0
     11475 MEMB     87       POPC     H18T     HAL3     0.900000E-01   1.00800           0
     11476 MEMB     87       POPC     C33      CTL2    -0.180000       12.0110           0
     11477 MEMB     87       POPC     H3X      HAL2     0.900000E-01   1.00800           0
     11478 MEMB     87       POPC     H3Y      HAL2     0.900000E-01   1.00800           0
     11479 MEMB     87       POPC     C34      CTL2    -0.180000       12.0110           0
     11480 MEMB     87       POPC     H4X      HAL2     0.900000E-01   1.00800           0
     11481 MEMB     87       POPC     H4Y      HAL2     0.900000E-01   1.00800           0
     11482 MEMB     87       POPC     C35      CTL2    -0.180000       12.0110           0
     11483 MEMB     87       POPC     H5X      HAL2     0.900000E-01   1.00800           0
     11484 MEMB     87       POPC     H5Y      HAL2     0.900000E-01   1.00800           0
     11485 MEMB     87       POPC     C36      CTL2    -0.180000       12.0110           0
     11486 MEMB     87       POPC     H6X      HAL2     0.900000E-01   1.00800           0
     11487 MEMB     87       POPC     H6Y      HAL2     0.900000E-01   1.00800           0
     11488 MEMB     87       POPC     C37      CTL2    -0.180000       12.0110           0
     11489 MEMB     87       POPC     H7X      HAL2     0.900000E-01   1.00800           0
     11490 MEMB     87       POPC     H7Y      HAL2     0.900000E-01   1.00800           0
     11491 MEMB     87       POPC     C38      CTL2    -0.180000       12.0110           0
     11492 MEMB     87       POPC     H8X      HAL2     0.900000E-01   1.00800           0
     11493 MEMB     87       POPC     H8Y      HAL2     0.900000E-01   1.00800           0
     11494 MEMB     87       POPC     C39      CTL2    -0.180000       12.0110           0
     11495 MEMB     87       POPC     H9X      HAL2     0.900000E-01   1.00800           0
     11496 MEMB     87       POPC     H9Y      HAL2     0.900000E-01   1.00800           0
     11497 MEMB     87       POPC     C310     CTL2    -0.180000       12.0110           0
     11498 MEMB     87       POPC     H10X     HAL2     0.900000E-01   1.00800           0
     11499 MEMB     87       POPC     H10Y     HAL2     0.900000E-01   1.00800           0
     11500 MEMB     87       POPC     C311     CTL2    -0.180000       12.0110           0
     11501 MEMB     87       POPC     H11X     HAL2     0.900000E-01   1.00800           0
     11502 MEMB     87       POPC     H11Y     HAL2     0.900000E-01   1.00800           0
     11503 MEMB     87       POPC     C312     CTL2    -0.180000       12.0110           0
     11504 MEMB     87       POPC     H12X     HAL2     0.900000E-01   1.00800           0
     11505 MEMB     87       POPC     H12Y     HAL2     0.900000E-01   1.00800           0
     11506 MEMB     87       POPC     C313     CTL2    -0.180000       12.0110           0
     11507 MEMB     87       POPC     H13X     HAL2     0.900000E-01   1.00800           0
     11508 MEMB     87       POPC     H13Y     HAL2     0.900000E-01   1.00800           0
     11509 MEMB     87       POPC     C314     CTL2    -0.180000       12.0110           0
     11510 MEMB     87       POPC     H14X     HAL2     0.900000E-01   1.00800           0
     11511 MEMB     87       POPC     H14Y     HAL2     0.900000E-01   1.00800           0
     11512 MEMB     87       POPC     C315     CTL2    -0.180000       12.0110           0
     11513 MEMB     87       POPC     H15X     HAL2     0.900000E-01   1.00800           0
     11514 MEMB     87       POPC     H15Y     HAL2     0.900000E-01   1.00800           0
     11515 MEMB     87       POPC     C316     CTL3    -0.270000       12.0110           0
     11516 MEMB     87       POPC     H16X     HAL3     0.900000E-01   1.00800           0
     11517 MEMB     87       POPC     H16Y     HAL3     0.900000E-01   1.00800           0
     11518 MEMB     87       POPC     H16Z     HAL3     0.900000E-01   1.00800           0
     11519 MEMB     88       POPC     N        NTL     -0.600000       14.0070           0
     11520 MEMB     88       POPC     C12      CTL2    -0.100000       12.0110           0
     11521 MEMB     88       POPC     H12A     HL       0.250000       1.00800           0
     11522 MEMB     88       POPC     H12B     HL       0.250000       1.00800           0
     11523 MEMB     88       POPC     C13      CTL5    -0.350000       12.0110           0
     11524 MEMB     88       POPC     H13A     HL       0.250000       1.00800           0
     11525 MEMB     88       POPC     H13B     HL       0.250000       1.00800           0
     11526 MEMB     88       POPC     H13C     HL       0.250000       1.00800           0
     11527 MEMB     88       POPC     C14      CTL5    -0.350000       12.0110           0
     11528 MEMB     88       POPC     H14A     HL       0.250000       1.00800           0
     11529 MEMB     88       POPC     H14B     HL       0.250000       1.00800           0
     11530 MEMB     88       POPC     H14C     HL       0.250000       1.00800           0
     11531 MEMB     88       POPC     C15      CTL5    -0.350000       12.0110           0
     11532 MEMB     88       POPC     H15A     HL       0.250000       1.00800           0
     11533 MEMB     88       POPC     H15B     HL       0.250000       1.00800           0
     11534 MEMB     88       POPC     H15C     HL       0.250000       1.00800           0
     11535 MEMB     88       POPC     C11      CTL2    -0.800000E-01   12.0110           0
     11536 MEMB     88       POPC     H11A     HAL2     0.900000E-01   1.00800           0
     11537 MEMB     88       POPC     H11B     HAL2     0.900000E-01   1.00800           0
     11538 MEMB     88       POPC     P        PL        1.50000       30.9740           0
     11539 MEMB     88       POPC     O13      O2L     -0.780000       15.9994           0
     11540 MEMB     88       POPC     O14      O2L     -0.780000       15.9994           0
     11541 MEMB     88       POPC     O12      OSLP    -0.570000       15.9994           0
     11542 MEMB     88       POPC     O11      OSLP    -0.570000       15.9994           0
     11543 MEMB     88       POPC     C1       CTL2    -0.800000E-01   12.0110           0
     11544 MEMB     88       POPC     HA       HAL2     0.900000E-01   1.00800           0
     11545 MEMB     88       POPC     HB       HAL2     0.900000E-01   1.00800           0
     11546 MEMB     88       POPC     C2       CTL1     0.170000       12.0110           0
     11547 MEMB     88       POPC     HS       HAL1     0.900000E-01   1.00800           0
     11548 MEMB     88       POPC     O21      OSL     -0.490000       15.9994           0
     11549 MEMB     88       POPC     C21      CL       0.900000       12.0110           0
     11550 MEMB     88       POPC     O22      OBL     -0.630000       15.9994           0
     11551 MEMB     88       POPC     C22      CTL2    -0.220000       12.0110           0
     11552 MEMB     88       POPC     H2R      HAL2     0.900000E-01   1.00800           0
     11553 MEMB     88       POPC     H2S      HAL2     0.900000E-01   1.00800           0
     11554 MEMB     88       POPC     C3       CTL2     0.800000E-01   12.0110           0
     11555 MEMB     88       POPC     HX       HAL2     0.900000E-01   1.00800           0
     11556 MEMB     88       POPC     HY       HAL2     0.900000E-01   1.00800           0
     11557 MEMB     88       POPC     O31      OSL     -0.490000       15.9994           0
     11558 MEMB     88       POPC     C31      CL       0.900000       12.0110           0
     11559 MEMB     88       POPC     O32      OBL     -0.630000       15.9994           0
     11560 MEMB     88       POPC     C32      CTL2    -0.220000       12.0110           0
     11561 MEMB     88       POPC     H2X      HAL2     0.900000E-01   1.00800           0
     11562 MEMB     88       POPC     H2Y      HAL2     0.900000E-01   1.00800           0
     11563 MEMB     88       POPC     C23      CTL2    -0.180000       12.0110           0
     11564 MEMB     88       POPC     H3R      HAL2     0.900000E-01   1.00800           0
     11565 MEMB     88       POPC     H3S      HAL2     0.900000E-01   1.00800           0
     11566 MEMB     88       POPC     C24      CTL2    -0.180000       12.0110           0
     11567 MEMB     88       POPC     H4R      HAL2     0.900000E-01   1.00800           0
     11568 MEMB     88       POPC     H4S      HAL2     0.900000E-01   1.00800           0
     11569 MEMB     88       POPC     C25      CTL2    -0.180000       12.0110           0
     11570 MEMB     88       POPC     H5R      HAL2     0.900000E-01   1.00800           0
     11571 MEMB     88       POPC     H5S      HAL2     0.900000E-01   1.00800           0
     11572 MEMB     88       POPC     C26      CTL2    -0.180000       12.0110           0
     11573 MEMB     88       POPC     H6R      HAL2     0.900000E-01   1.00800           0
     11574 MEMB     88       POPC     H6S      HAL2     0.900000E-01   1.00800           0
     11575 MEMB     88       POPC     C27      CTL2    -0.180000       12.0110           0
     11576 MEMB     88       POPC     H7R      HAL2     0.900000E-01   1.00800           0
     11577 MEMB     88       POPC     H7S      HAL2     0.900000E-01   1.00800           0
     11578 MEMB     88       POPC     C28      CTL2    -0.180000       12.0110           0
     11579 MEMB     88       POPC     H8R      HAL2     0.900000E-01   1.00800           0
     11580 MEMB     88       POPC     H8S      HAL2     0.900000E-01   1.00800           0
     11581 MEMB     88       POPC     C29      CEL1    -0.150000       12.0110           0
     11582 MEMB     88       POPC     H91      HEL1     0.150000       1.00800           0
     11583 MEMB     88       POPC     C210     CEL1    -0.150000       12.0110           0
     11584 MEMB     88       POPC     H101     HEL1     0.150000       1.00800           0
     11585 MEMB     88       POPC     C211     CTL2    -0.180000       12.0110           0
     11586 MEMB     88       POPC     H11R     HAL2     0.900000E-01   1.00800           0
     11587 MEMB     88       POPC     H11S     HAL2     0.900000E-01   1.00800           0
     11588 MEMB     88       POPC     C212     CTL2    -0.180000       12.0110           0
     11589 MEMB     88       POPC     H12R     HAL2     0.900000E-01   1.00800           0
     11590 MEMB     88       POPC     H12S     HAL2     0.900000E-01   1.00800           0
     11591 MEMB     88       POPC     C213     CTL2    -0.180000       12.0110           0
     11592 MEMB     88       POPC     H13R     HAL2     0.900000E-01   1.00800           0
     11593 MEMB     88       POPC     H13S     HAL2     0.900000E-01   1.00800           0
     11594 MEMB     88       POPC     C214     CTL2    -0.180000       12.0110           0
     11595 MEMB     88       POPC     H14R     HAL2     0.900000E-01   1.00800           0
     11596 MEMB     88       POPC     H14S     HAL2     0.900000E-01   1.00800           0
     11597 MEMB     88       POPC     C215     CTL2    -0.180000       12.0110           0
     11598 MEMB     88       POPC     H15R     HAL2     0.900000E-01   1.00800           0
     11599 MEMB     88       POPC     H15S     HAL2     0.900000E-01   1.00800           0
     11600 MEMB     88       POPC     C216     CTL2    -0.180000       12.0110           0
     11601 MEMB     88       POPC     H16R     HAL2     0.900000E-01   1.00800           0
     11602 MEMB     88       POPC     H16S     HAL2     0.900000E-01   1.00800           0
     11603 MEMB     88       POPC     C217     CTL2    -0.180000       12.0110           0
     11604 MEMB     88       POPC     H17R     HAL2     0.900000E-01   1.00800           0
     11605 MEMB     88       POPC     H17S     HAL2     0.900000E-01   1.00800           0
     11606 MEMB     88       POPC     C218     CTL3    -0.270000       12.0110           0
     11607 MEMB     88       POPC     H18R     HAL3     0.900000E-01   1.00800           0
     11608 MEMB     88       POPC     H18S     HAL3     0.900000E-01   1.00800           0
     11609 MEMB     88       POPC     H18T     HAL3     0.900000E-01   1.00800           0
     11610 MEMB     88       POPC     C33      CTL2    -0.180000       12.0110           0
     11611 MEMB     88       POPC     H3X      HAL2     0.900000E-01   1.00800           0
     11612 MEMB     88       POPC     H3Y      HAL2     0.900000E-01   1.00800           0
     11613 MEMB     88       POPC     C34      CTL2    -0.180000       12.0110           0
     11614 MEMB     88       POPC     H4X      HAL2     0.900000E-01   1.00800           0
     11615 MEMB     88       POPC     H4Y      HAL2     0.900000E-01   1.00800           0
     11616 MEMB     88       POPC     C35      CTL2    -0.180000       12.0110           0
     11617 MEMB     88       POPC     H5X      HAL2     0.900000E-01   1.00800           0
     11618 MEMB     88       POPC     H5Y      HAL2     0.900000E-01   1.00800           0
     11619 MEMB     88       POPC     C36      CTL2    -0.180000       12.0110           0
     11620 MEMB     88       POPC     H6X      HAL2     0.900000E-01   1.00800           0
     11621 MEMB     88       POPC     H6Y      HAL2     0.900000E-01   1.00800           0
     11622 MEMB     88       POPC     C37      CTL2    -0.180000       12.0110           0
     11623 MEMB     88       POPC     H7X      HAL2     0.900000E-01   1.00800           0
     11624 MEMB     88       POPC     H7Y      HAL2     0.900000E-01   1.00800           0
     11625 MEMB     88       POPC     C38      CTL2    -0.180000       12.0110           0
     11626 MEMB     88       POPC     H8X      HAL2     0.900000E-01   1.00800           0
     11627 MEMB     88       POPC     H8Y      HAL2     0.900000E-01   1.00800           0
     11628 MEMB     88       POPC     C39      CTL2    -0.180000       12.0110           0
     11629 MEMB     88       POPC     H9X      HAL2     0.900000E-01   1.00800           0
     11630 MEMB     88       POPC     H9Y      HAL2     0.900000E-01   1.00800           0
     11631 MEMB     88       POPC     C310     CTL2    -0.180000       12.0110           0
     11632 MEMB     88       POPC     H10X     HAL2     0.900000E-01   1.00800           0
     11633 MEMB     88       POPC     H10Y     HAL2     0.900000E-01   1.00800           0
     11634 MEMB     88       POPC     C311     CTL2    -0.180000       12.0110           0
     11635 MEMB     88       POPC     H11X     HAL2     0.900000E-01   1.00800           0
     11636 MEMB     88       POPC     H11Y     HAL2     0.900000E-01   1.00800           0
     11637 MEMB     88       POPC     C312     CTL2    -0.180000       12.0110           0
     11638 MEMB     88       POPC     H12X     HAL2     0.900000E-01   1.00800           0
     11639 MEMB     88       POPC     H12Y     HAL2     0.900000E-01   1.00800           0
     11640 MEMB     88       POPC     C313     CTL2    -0.180000       12.0110           0
     11641 MEMB     88       POPC     H13X     HAL2     0.900000E-01   1.00800           0
     11642 MEMB     88       POPC     H13Y     HAL2     0.900000E-01   1.00800           0
     11643 MEMB     88       POPC     C314     CTL2    -0.180000       12.0110           0
     11644 MEMB     88       POPC     H14X     HAL2     0.900000E-01   1.00800           0
     11645 MEMB     88       POPC     H14Y     HAL2     0.900000E-01   1.00800           0
     11646 MEMB     88       POPC     C315     CTL2    -0.180000       12.0110           0
     11647 MEMB     88       POPC     H15X     HAL2     0.900000E-01   1.00800           0
     11648 MEMB     88       POPC     H15Y     HAL2     0.900000E-01   1.00800           0
     11649 MEMB     88       POPC     C316     CTL3    -0.270000       12.0110           0
     11650 MEMB     88       POPC     H16X     HAL3     0.900000E-01   1.00800           0
     11651 MEMB     88       POPC     H16Y     HAL3     0.900000E-01   1.00800           0
     11652 MEMB     88       POPC     H16Z     HAL3     0.900000E-01   1.00800           0
     11653 MEMB     89       POPC     N        NTL     -0.600000       14.0070           0
     11654 MEMB     89       POPC     C12      CTL2    -0.100000       12.0110           0
     11655 MEMB     89       POPC     H12A     HL       0.250000       1.00800           0
     11656 MEMB     89       POPC     H12B     HL       0.250000       1.00800           0
     11657 MEMB     89       POPC     C13      CTL5    -0.350000       12.0110           0
     11658 MEMB     89       POPC     H13A     HL       0.250000       1.00800           0
     11659 MEMB     89       POPC     H13B     HL       0.250000       1.00800           0
     11660 MEMB     89       POPC     H13C     HL       0.250000       1.00800           0
     11661 MEMB     89       POPC     C14      CTL5    -0.350000       12.0110           0
     11662 MEMB     89       POPC     H14A     HL       0.250000       1.00800           0
     11663 MEMB     89       POPC     H14B     HL       0.250000       1.00800           0
     11664 MEMB     89       POPC     H14C     HL       0.250000       1.00800           0
     11665 MEMB     89       POPC     C15      CTL5    -0.350000       12.0110           0
     11666 MEMB     89       POPC     H15A     HL       0.250000       1.00800           0
     11667 MEMB     89       POPC     H15B     HL       0.250000       1.00800           0
     11668 MEMB     89       POPC     H15C     HL       0.250000       1.00800           0
     11669 MEMB     89       POPC     C11      CTL2    -0.800000E-01   12.0110           0
     11670 MEMB     89       POPC     H11A     HAL2     0.900000E-01   1.00800           0
     11671 MEMB     89       POPC     H11B     HAL2     0.900000E-01   1.00800           0
     11672 MEMB     89       POPC     P        PL        1.50000       30.9740           0
     11673 MEMB     89       POPC     O13      O2L     -0.780000       15.9994           0
     11674 MEMB     89       POPC     O14      O2L     -0.780000       15.9994           0
     11675 MEMB     89       POPC     O12      OSLP    -0.570000       15.9994           0
     11676 MEMB     89       POPC     O11      OSLP    -0.570000       15.9994           0
     11677 MEMB     89       POPC     C1       CTL2    -0.800000E-01   12.0110           0
     11678 MEMB     89       POPC     HA       HAL2     0.900000E-01   1.00800           0
     11679 MEMB     89       POPC     HB       HAL2     0.900000E-01   1.00800           0
     11680 MEMB     89       POPC     C2       CTL1     0.170000       12.0110           0
     11681 MEMB     89       POPC     HS       HAL1     0.900000E-01   1.00800           0
     11682 MEMB     89       POPC     O21      OSL     -0.490000       15.9994           0
     11683 MEMB     89       POPC     C21      CL       0.900000       12.0110           0
     11684 MEMB     89       POPC     O22      OBL     -0.630000       15.9994           0
     11685 MEMB     89       POPC     C22      CTL2    -0.220000       12.0110           0
     11686 MEMB     89       POPC     H2R      HAL2     0.900000E-01   1.00800           0
     11687 MEMB     89       POPC     H2S      HAL2     0.900000E-01   1.00800           0
     11688 MEMB     89       POPC     C3       CTL2     0.800000E-01   12.0110           0
     11689 MEMB     89       POPC     HX       HAL2     0.900000E-01   1.00800           0
     11690 MEMB     89       POPC     HY       HAL2     0.900000E-01   1.00800           0
     11691 MEMB     89       POPC     O31      OSL     -0.490000       15.9994           0
     11692 MEMB     89       POPC     C31      CL       0.900000       12.0110           0
     11693 MEMB     89       POPC     O32      OBL     -0.630000       15.9994           0
     11694 MEMB     89       POPC     C32      CTL2    -0.220000       12.0110           0
     11695 MEMB     89       POPC     H2X      HAL2     0.900000E-01   1.00800           0
     11696 MEMB     89       POPC     H2Y      HAL2     0.900000E-01   1.00800           0
     11697 MEMB     89       POPC     C23      CTL2    -0.180000       12.0110           0
     11698 MEMB     89       POPC     H3R      HAL2     0.900000E-01   1.00800           0
     11699 MEMB     89       POPC     H3S      HAL2     0.900000E-01   1.00800           0
     11700 MEMB     89       POPC     C24      CTL2    -0.180000       12.0110           0
     11701 MEMB     89       POPC     H4R      HAL2     0.900000E-01   1.00800           0
     11702 MEMB     89       POPC     H4S      HAL2     0.900000E-01   1.00800           0
     11703 MEMB     89       POPC     C25      CTL2    -0.180000       12.0110           0
     11704 MEMB     89       POPC     H5R      HAL2     0.900000E-01   1.00800           0
     11705 MEMB     89       POPC     H5S      HAL2     0.900000E-01   1.00800           0
     11706 MEMB     89       POPC     C26      CTL2    -0.180000       12.0110           0
     11707 MEMB     89       POPC     H6R      HAL2     0.900000E-01   1.00800           0
     11708 MEMB     89       POPC     H6S      HAL2     0.900000E-01   1.00800           0
     11709 MEMB     89       POPC     C27      CTL2    -0.180000       12.0110           0
     11710 MEMB     89       POPC     H7R      HAL2     0.900000E-01   1.00800           0
     11711 MEMB     89       POPC     H7S      HAL2     0.900000E-01   1.00800           0
     11712 MEMB     89       POPC     C28      CTL2    -0.180000       12.0110           0
     11713 MEMB     89       POPC     H8R      HAL2     0.900000E-01   1.00800           0
     11714 MEMB     89       POPC     H8S      HAL2     0.900000E-01   1.00800           0
     11715 MEMB     89       POPC     C29      CEL1    -0.150000       12.0110           0
     11716 MEMB     89       POPC     H91      HEL1     0.150000       1.00800           0
     11717 MEMB     89       POPC     C210     CEL1    -0.150000       12.0110           0
     11718 MEMB     89       POPC     H101     HEL1     0.150000       1.00800           0
     11719 MEMB     89       POPC     C211     CTL2    -0.180000       12.0110           0
     11720 MEMB     89       POPC     H11R     HAL2     0.900000E-01   1.00800           0
     11721 MEMB     89       POPC     H11S     HAL2     0.900000E-01   1.00800           0
     11722 MEMB     89       POPC     C212     CTL2    -0.180000       12.0110           0
     11723 MEMB     89       POPC     H12R     HAL2     0.900000E-01   1.00800           0
     11724 MEMB     89       POPC     H12S     HAL2     0.900000E-01   1.00800           0
     11725 MEMB     89       POPC     C213     CTL2    -0.180000       12.0110           0
     11726 MEMB     89       POPC     H13R     HAL2     0.900000E-01   1.00800           0
     11727 MEMB     89       POPC     H13S     HAL2     0.900000E-01   1.00800           0
     11728 MEMB     89       POPC     C214     CTL2    -0.180000       12.0110           0
     11729 MEMB     89       POPC     H14R     HAL2     0.900000E-01   1.00800           0
     11730 MEMB     89       POPC     H14S     HAL2     0.900000E-01   1.00800           0
     11731 MEMB     89       POPC     C215     CTL2    -0.180000       12.0110           0
     11732 MEMB     89       POPC     H15R     HAL2     0.900000E-01   1.00800           0
     11733 MEMB     89       POPC     H15S     HAL2     0.900000E-01   1.00800           0
     11734 MEMB     89       POPC     C216     CTL2    -0.180000       12.0110           0
     11735 MEMB     89       POPC     H16R     HAL2     0.900000E-01   1.00800           0
     11736 MEMB     89       POPC     H16S     HAL2     0.900000E-01   1.00800           0
     11737 MEMB     89       POPC     C217     CTL2    -0.180000       12.0110           0
     11738 MEMB     89       POPC     H17R     HAL2     0.900000E-01   1.00800           0
     11739 MEMB     89       POPC     H17S     HAL2     0.900000E-01   1.00800           0
     11740 MEMB     89       POPC     C218     CTL3    -0.270000       12.0110           0
     11741 MEMB     89       POPC     H18R     HAL3     0.900000E-01   1.00800           0
     11742 MEMB     89       POPC     H18S     HAL3     0.900000E-01   1.00800           0
     11743 MEMB     89       POPC     H18T     HAL3     0.900000E-01   1.00800           0
     11744 MEMB     89       POPC     C33      CTL2    -0.180000       12.0110           0
     11745 MEMB     89       POPC     H3X      HAL2     0.900000E-01   1.00800           0
     11746 MEMB     89       POPC     H3Y      HAL2     0.900000E-01   1.00800           0
     11747 MEMB     89       POPC     C34      CTL2    -0.180000       12.0110           0
     11748 MEMB     89       POPC     H4X      HAL2     0.900000E-01   1.00800           0
     11749 MEMB     89       POPC     H4Y      HAL2     0.900000E-01   1.00800           0
     11750 MEMB     89       POPC     C35      CTL2    -0.180000       12.0110           0
     11751 MEMB     89       POPC     H5X      HAL2     0.900000E-01   1.00800           0
     11752 MEMB     89       POPC     H5Y      HAL2     0.900000E-01   1.00800           0
     11753 MEMB     89       POPC     C36      CTL2    -0.180000       12.0110           0
     11754 MEMB     89       POPC     H6X      HAL2     0.900000E-01   1.00800           0
     11755 MEMB     89       POPC     H6Y      HAL2     0.900000E-01   1.00800           0
     11756 MEMB     89       POPC     C37      CTL2    -0.180000       12.0110           0
     11757 MEMB     89       POPC     H7X      HAL2     0.900000E-01   1.00800           0
     11758 MEMB     89       POPC     H7Y      HAL2     0.900000E-01   1.00800           0
     11759 MEMB     89       POPC     C38      CTL2    -0.180000       12.0110           0
     11760 MEMB     89       POPC     H8X      HAL2     0.900000E-01   1.00800           0
     11761 MEMB     89       POPC     H8Y      HAL2     0.900000E-01   1.00800           0
     11762 MEMB     89       POPC     C39      CTL2    -0.180000       12.0110           0
     11763 MEMB     89       POPC     H9X      HAL2     0.900000E-01   1.00800           0
     11764 MEMB     89       POPC     H9Y      HAL2     0.900000E-01   1.00800           0
     11765 MEMB     89       POPC     C310     CTL2    -0.180000       12.0110           0
     11766 MEMB     89       POPC     H10X     HAL2     0.900000E-01   1.00800           0
     11767 MEMB     89       POPC     H10Y     HAL2     0.900000E-01   1.00800           0
     11768 MEMB     89       POPC     C311     CTL2    -0.180000       12.0110           0
     11769 MEMB     89       POPC     H11X     HAL2     0.900000E-01   1.00800           0
     11770 MEMB     89       POPC     H11Y     HAL2     0.900000E-01   1.00800           0
     11771 MEMB     89       POPC     C312     CTL2    -0.180000       12.0110           0
     11772 MEMB     89       POPC     H12X     HAL2     0.900000E-01   1.00800           0
     11773 MEMB     89       POPC     H12Y     HAL2     0.900000E-01   1.00800           0
     11774 MEMB     89       POPC     C313     CTL2    -0.180000       12.0110           0
     11775 MEMB     89       POPC     H13X     HAL2     0.900000E-01   1.00800           0
     11776 MEMB     89       POPC     H13Y     HAL2     0.900000E-01   1.00800           0
     11777 MEMB     89       POPC     C314     CTL2    -0.180000       12.0110           0
     11778 MEMB     89       POPC     H14X     HAL2     0.900000E-01   1.00800           0
     11779 MEMB     89       POPC     H14Y     HAL2     0.900000E-01   1.00800           0
     11780 MEMB     89       POPC     C315     CTL2    -0.180000       12.0110           0
     11781 MEMB     89       POPC     H15X     HAL2     0.900000E-01   1.00800           0
     11782 MEMB     89       POPC     H15Y     HAL2     0.900000E-01   1.00800           0
     11783 MEMB     89       POPC     C316     CTL3    -0.270000       12.0110           0
     11784 MEMB     89       POPC     H16X     HAL3     0.900000E-01   1.00800           0
     11785 MEMB     89       POPC     H16Y     HAL3     0.900000E-01   1.00800           0
     11786 MEMB     89       POPC     H16Z     HAL3     0.900000E-01   1.00800           0
     11787 MEMB     90       POPC     N        NTL     -0.600000       14.0070           0
     11788 MEMB     90       POPC     C12      CTL2    -0.100000       12.0110           0
     11789 MEMB     90       POPC     H12A     HL       0.250000       1.00800           0
     11790 MEMB     90       POPC     H12B     HL       0.250000       1.00800           0
     11791 MEMB     90       POPC     C13      CTL5    -0.350000       12.0110           0
     11792 MEMB     90       POPC     H13A     HL       0.250000       1.00800           0
     11793 MEMB     90       POPC     H13B     HL       0.250000       1.00800           0
     11794 MEMB     90       POPC     H13C     HL       0.250000       1.00800           0
     11795 MEMB     90       POPC     C14      CTL5    -0.350000       12.0110           0
     11796 MEMB     90       POPC     H14A     HL       0.250000       1.00800           0
     11797 MEMB     90       POPC     H14B     HL       0.250000       1.00800           0
     11798 MEMB     90       POPC     H14C     HL       0.250000       1.00800           0
     11799 MEMB     90       POPC     C15      CTL5    -0.350000       12.0110           0
     11800 MEMB     90       POPC     H15A     HL       0.250000       1.00800           0
     11801 MEMB     90       POPC     H15B     HL       0.250000       1.00800           0
     11802 MEMB     90       POPC     H15C     HL       0.250000       1.00800           0
     11803 MEMB     90       POPC     C11      CTL2    -0.800000E-01   12.0110           0
     11804 MEMB     90       POPC     H11A     HAL2     0.900000E-01   1.00800           0
     11805 MEMB     90       POPC     H11B     HAL2     0.900000E-01   1.00800           0
     11806 MEMB     90       POPC     P        PL        1.50000       30.9740           0
     11807 MEMB     90       POPC     O13      O2L     -0.780000       15.9994           0
     11808 MEMB     90       POPC     O14      O2L     -0.780000       15.9994           0
     11809 MEMB     90       POPC     O12      OSLP    -0.570000       15.9994           0
     11810 MEMB     90       POPC     O11      OSLP    -0.570000       15.9994           0
     11811 MEMB     90       POPC     C1       CTL2    -0.800000E-01   12.0110           0
     11812 MEMB     90       POPC     HA       HAL2     0.900000E-01   1.00800           0
     11813 MEMB     90       POPC     HB       HAL2     0.900000E-01   1.00800           0
     11814 MEMB     90       POPC     C2       CTL1     0.170000       12.0110           0
     11815 MEMB     90       POPC     HS       HAL1     0.900000E-01   1.00800           0
     11816 MEMB     90       POPC     O21      OSL     -0.490000       15.9994           0
     11817 MEMB     90       POPC     C21      CL       0.900000       12.0110           0
     11818 MEMB     90       POPC     O22      OBL     -0.630000       15.9994           0
     11819 MEMB     90       POPC     C22      CTL2    -0.220000       12.0110           0
     11820 MEMB     90       POPC     H2R      HAL2     0.900000E-01   1.00800           0
     11821 MEMB     90       POPC     H2S      HAL2     0.900000E-01   1.00800           0
     11822 MEMB     90       POPC     C3       CTL2     0.800000E-01   12.0110           0
     11823 MEMB     90       POPC     HX       HAL2     0.900000E-01   1.00800           0
     11824 MEMB     90       POPC     HY       HAL2     0.900000E-01   1.00800           0
     11825 MEMB     90       POPC     O31      OSL     -0.490000       15.9994           0
     11826 MEMB     90       POPC     C31      CL       0.900000       12.0110           0
     11827 MEMB     90       POPC     O32      OBL     -0.630000       15.9994           0
     11828 MEMB     90       POPC     C32      CTL2    -0.220000       12.0110           0
     11829 MEMB     90       POPC     H2X      HAL2     0.900000E-01   1.00800           0
     11830 MEMB     90       POPC     H2Y      HAL2     0.900000E-01   1.00800           0
     11831 MEMB     90       POPC     C23      CTL2    -0.180000       12.0110           0
     11832 MEMB     90       POPC     H3R      HAL2     0.900000E-01   1.00800           0
     11833 MEMB     90       POPC     H3S      HAL2     0.900000E-01   1.00800           0
     11834 MEMB     90       POPC     C24      CTL2    -0.180000       12.0110           0
     11835 MEMB     90       POPC     H4R      HAL2     0.900000E-01   1.00800           0
     11836 MEMB     90       POPC     H4S      HAL2     0.900000E-01   1.00800           0
     11837 MEMB     90       POPC     C25      CTL2    -0.180000       12.0110           0
     11838 MEMB     90       POPC     H5R      HAL2     0.900000E-01   1.00800           0
     11839 MEMB     90       POPC     H5S      HAL2     0.900000E-01   1.00800           0
     11840 MEMB     90       POPC     C26      CTL2    -0.180000       12.0110           0
     11841 MEMB     90       POPC     H6R      HAL2     0.900000E-01   1.00800           0
     11842 MEMB     90       POPC     H6S      HAL2     0.900000E-01   1.00800           0
     11843 MEMB     90       POPC     C27      CTL2    -0.180000       12.0110           0
     11844 MEMB     90       POPC     H7R      HAL2     0.900000E-01   1.00800           0
     11845 MEMB     90       POPC     H7S      HAL2     0.900000E-01   1.00800           0
     11846 MEMB     90       POPC     C28      CTL2    -0.180000       12.0110           0
     11847 MEMB     90       POPC     H8R      HAL2     0.900000E-01   1.00800           0
     11848 MEMB     90       POPC     H8S      HAL2     0.900000E-01   1.00800           0
     11849 MEMB     90       POPC     C29      CEL1    -0.150000       12.0110           0
     11850 MEMB     90       POPC     H91      HEL1     0.150000       1.00800           0
     11851 MEMB     90       POPC     C210     CEL1    -0.150000       12.0110           0
     11852 MEMB     90       POPC     H101     HEL1     0.150000       1.00800           0
     11853 MEMB     90       POPC     C211     CTL2    -0.180000       12.0110           0
     11854 MEMB     90       POPC     H11R     HAL2     0.900000E-01   1.00800           0
     11855 MEMB     90       POPC     H11S     HAL2     0.900000E-01   1.00800           0
     11856 MEMB     90       POPC     C212     CTL2    -0.180000       12.0110           0
     11857 MEMB     90       POPC     H12R     HAL2     0.900000E-01   1.00800           0
     11858 MEMB     90       POPC     H12S     HAL2     0.900000E-01   1.00800           0
     11859 MEMB     90       POPC     C213     CTL2    -0.180000       12.0110           0
     11860 MEMB     90       POPC     H13R     HAL2     0.900000E-01   1.00800           0
     11861 MEMB     90       POPC     H13S     HAL2     0.900000E-01   1.00800           0
     11862 MEMB     90       POPC     C214     CTL2    -0.180000       12.0110           0
     11863 MEMB     90       POPC     H14R     HAL2     0.900000E-01   1.00800           0
     11864 MEMB     90       POPC     H14S     HAL2     0.900000E-01   1.00800           0
     11865 MEMB     90       POPC     C215     CTL2    -0.180000       12.0110           0
     11866 MEMB     90       POPC     H15R     HAL2     0.900000E-01   1.00800           0
     11867 MEMB     90       POPC     H15S     HAL2     0.900000E-01   1.00800           0
     11868 MEMB     90       POPC     C216     CTL2    -0.180000       12.0110           0
     11869 MEMB     90       POPC     H16R     HAL2     0.900000E-01   1.00800           0
     11870 MEMB     90       POPC     H16S     HAL2     0.900000E-01   1.00800           0
     11871 MEMB     90       POPC     C217     CTL2    -0.180000       12.0110           0
     11872 MEMB     90       POPC     H17R     HAL2     0.900000E-01   1.00800           0
     11873 MEMB     90       POPC     H17S     HAL2     0.900000E-01   1.00800           0
     11874 MEMB     90       POPC     C218     CTL3    -0.270000       12.0110           0
     11875 MEMB     90       POPC     H18R     HAL3     0.900000E-01   1.00800           0
     11876 MEMB     90       POPC     H18S     HAL3     0.900000E-01   1.00800           0
     11877 MEMB     90       POPC     H18T     HAL3     0.900000E-01   1.00800           0
     11878 MEMB     90       POPC     C33      CTL2    -0.180000       12.0110           0
     11879 MEMB     90       POPC     H3X      HAL2     0.900000E-01   1.00800           0
     11880 MEMB     90       POPC     H3Y      HAL2     0.900000E-01   1.00800           0
     11881 MEMB     90       POPC     C34      CTL2    -0.180000       12.0110           0
     11882 MEMB     90       POPC     H4X      HAL2     0.900000E-01   1.00800           0
     11883 MEMB     90       POPC     H4Y      HAL2     0.900000E-01   1.00800           0
     11884 MEMB     90       POPC     C35      CTL2    -0.180000       12.0110           0
     11885 MEMB     90       POPC     H5X      HAL2     0.900000E-01   1.00800           0
     11886 MEMB     90       POPC     H5Y      HAL2     0.900000E-01   1.00800           0
     11887 MEMB     90       POPC     C36      CTL2    -0.180000       12.0110           0
     11888 MEMB     90       POPC     H6X      HAL2     0.900000E-01   1.00800           0
     11889 MEMB     90       POPC     H6Y      HAL2     0.900000E-01   1.00800           0
     11890 MEMB     90       POPC     C37      CTL2    -0.180000       12.0110           0
     11891 MEMB     90       POPC     H7X      HAL2     0.900000E-01   1.00800           0
     11892 MEMB     90       POPC     H7Y      HAL2     0.900000E-01   1.00800           0
     11893 MEMB     90       POPC     C38      CTL2    -0.180000       12.0110           0
     11894 MEMB     90       POPC     H8X      HAL2     0.900000E-01   1.00800           0
     11895 MEMB     90       POPC     H8Y      HAL2     0.900000E-01   1.00800           0
     11896 MEMB     90       POPC     C39      CTL2    -0.180000       12.0110           0
     11897 MEMB     90       POPC     H9X      HAL2     0.900000E-01   1.00800           0
     11898 MEMB     90       POPC     H9Y      HAL2     0.900000E-01   1.00800           0
     11899 MEMB     90       POPC     C310     CTL2    -0.180000       12.0110           0
     11900 MEMB     90       POPC     H10X     HAL2     0.900000E-01   1.00800           0
     11901 MEMB     90       POPC     H10Y     HAL2     0.900000E-01   1.00800           0
     11902 MEMB     90       POPC     C311     CTL2    -0.180000       12.0110           0
     11903 MEMB     90       POPC     H11X     HAL2     0.900000E-01   1.00800           0
     11904 MEMB     90       POPC     H11Y     HAL2     0.900000E-01   1.00800           0
     11905 MEMB     90       POPC     C312     CTL2    -0.180000       12.0110           0
     11906 MEMB     90       POPC     H12X     HAL2     0.900000E-01   1.00800           0
     11907 MEMB     90       POPC     H12Y     HAL2     0.900000E-01   1.00800           0
     11908 MEMB     90       POPC     C313     CTL2    -0.180000       12.0110           0
     11909 MEMB     90       POPC     H13X     HAL2     0.900000E-01   1.00800           0
     11910 MEMB     90       POPC     H13Y     HAL2     0.900000E-01   1.00800           0
     11911 MEMB     90       POPC     C314     CTL2    -0.180000       12.0110           0
     11912 MEMB     90       POPC     H14X     HAL2     0.900000E-01   1.00800           0
     11913 MEMB     90       POPC     H14Y     HAL2     0.900000E-01   1.00800           0
     11914 MEMB     90       POPC     C315     CTL2    -0.180000       12.0110           0
     11915 MEMB     90       POPC     H15X     HAL2     0.900000E-01   1.00800           0
     11916 MEMB     90       POPC     H15Y     HAL2     0.900000E-01   1.00800           0
     11917 MEMB     90       POPC     C316     CTL3    -0.270000       12.0110           0
     11918 MEMB     90       POPC     H16X     HAL3     0.900000E-01   1.00800           0
     11919 MEMB     90       POPC     H16Y     HAL3     0.900000E-01   1.00800           0
     11920 MEMB     90       POPC     H16Z     HAL3     0.900000E-01   1.00800           0
     11921 MEMB     91       POPC     N        NTL     -0.600000       14.0070           0
     11922 MEMB     91       POPC     C12      CTL2    -0.100000       12.0110           0
     11923 MEMB     91       POPC     H12A     HL       0.250000       1.00800           0
     11924 MEMB     91       POPC     H12B     HL       0.250000       1.00800           0
     11925 MEMB     91       POPC     C13      CTL5    -0.350000       12.0110           0
     11926 MEMB     91       POPC     H13A     HL       0.250000       1.00800           0
     11927 MEMB     91       POPC     H13B     HL       0.250000       1.00800           0
     11928 MEMB     91       POPC     H13C     HL       0.250000       1.00800           0
     11929 MEMB     91       POPC     C14      CTL5    -0.350000       12.0110           0
     11930 MEMB     91       POPC     H14A     HL       0.250000       1.00800           0
     11931 MEMB     91       POPC     H14B     HL       0.250000       1.00800           0
     11932 MEMB     91       POPC     H14C     HL       0.250000       1.00800           0
     11933 MEMB     91       POPC     C15      CTL5    -0.350000       12.0110           0
     11934 MEMB     91       POPC     H15A     HL       0.250000       1.00800           0
     11935 MEMB     91       POPC     H15B     HL       0.250000       1.00800           0
     11936 MEMB     91       POPC     H15C     HL       0.250000       1.00800           0
     11937 MEMB     91       POPC     C11      CTL2    -0.800000E-01   12.0110           0
     11938 MEMB     91       POPC     H11A     HAL2     0.900000E-01   1.00800           0
     11939 MEMB     91       POPC     H11B     HAL2     0.900000E-01   1.00800           0
     11940 MEMB     91       POPC     P        PL        1.50000       30.9740           0
     11941 MEMB     91       POPC     O13      O2L     -0.780000       15.9994           0
     11942 MEMB     91       POPC     O14      O2L     -0.780000       15.9994           0
     11943 MEMB     91       POPC     O12      OSLP    -0.570000       15.9994           0
     11944 MEMB     91       POPC     O11      OSLP    -0.570000       15.9994           0
     11945 MEMB     91       POPC     C1       CTL2    -0.800000E-01   12.0110           0
     11946 MEMB     91       POPC     HA       HAL2     0.900000E-01   1.00800           0
     11947 MEMB     91       POPC     HB       HAL2     0.900000E-01   1.00800           0
     11948 MEMB     91       POPC     C2       CTL1     0.170000       12.0110           0
     11949 MEMB     91       POPC     HS       HAL1     0.900000E-01   1.00800           0
     11950 MEMB     91       POPC     O21      OSL     -0.490000       15.9994           0
     11951 MEMB     91       POPC     C21      CL       0.900000       12.0110           0
     11952 MEMB     91       POPC     O22      OBL     -0.630000       15.9994           0
     11953 MEMB     91       POPC     C22      CTL2    -0.220000       12.0110           0
     11954 MEMB     91       POPC     H2R      HAL2     0.900000E-01   1.00800           0
     11955 MEMB     91       POPC     H2S      HAL2     0.900000E-01   1.00800           0
     11956 MEMB     91       POPC     C3       CTL2     0.800000E-01   12.0110           0
     11957 MEMB     91       POPC     HX       HAL2     0.900000E-01   1.00800           0
     11958 MEMB     91       POPC     HY       HAL2     0.900000E-01   1.00800           0
     11959 MEMB     91       POPC     O31      OSL     -0.490000       15.9994           0
     11960 MEMB     91       POPC     C31      CL       0.900000       12.0110           0
     11961 MEMB     91       POPC     O32      OBL     -0.630000       15.9994           0
     11962 MEMB     91       POPC     C32      CTL2    -0.220000       12.0110           0
     11963 MEMB     91       POPC     H2X      HAL2     0.900000E-01   1.00800           0
     11964 MEMB     91       POPC     H2Y      HAL2     0.900000E-01   1.00800           0
     11965 MEMB     91       POPC     C23      CTL2    -0.180000       12.0110           0
     11966 MEMB     91       POPC     H3R      HAL2     0.900000E-01   1.00800           0
     11967 MEMB     91       POPC     H3S      HAL2     0.900000E-01   1.00800           0
     11968 MEMB     91       POPC     C24      CTL2    -0.180000       12.0110           0
     11969 MEMB     91       POPC     H4R      HAL2     0.900000E-01   1.00800           0
     11970 MEMB     91       POPC     H4S      HAL2     0.900000E-01   1.00800           0
     11971 MEMB     91       POPC     C25      CTL2    -0.180000       12.0110           0
     11972 MEMB     91       POPC     H5R      HAL2     0.900000E-01   1.00800           0
     11973 MEMB     91       POPC     H5S      HAL2     0.900000E-01   1.00800           0
     11974 MEMB     91       POPC     C26      CTL2    -0.180000       12.0110           0
     11975 MEMB     91       POPC     H6R      HAL2     0.900000E-01   1.00800           0
     11976 MEMB     91       POPC     H6S      HAL2     0.900000E-01   1.00800           0
     11977 MEMB     91       POPC     C27      CTL2    -0.180000       12.0110           0
     11978 MEMB     91       POPC     H7R      HAL2     0.900000E-01   1.00800           0
     11979 MEMB     91       POPC     H7S      HAL2     0.900000E-01   1.00800           0
     11980 MEMB     91       POPC     C28      CTL2    -0.180000       12.0110           0
     11981 MEMB     91       POPC     H8R      HAL2     0.900000E-01   1.00800           0
     11982 MEMB     91       POPC     H8S      HAL2     0.900000E-01   1.00800           0
     11983 MEMB     91       POPC     C29      CEL1    -0.150000       12.0110           0
     11984 MEMB     91       POPC     H91      HEL1     0.150000       1.00800           0
     11985 MEMB     91       POPC     C210     CEL1    -0.150000       12.0110           0
     11986 MEMB     91       POPC     H101     HEL1     0.150000       1.00800           0
     11987 MEMB     91       POPC     C211     CTL2    -0.180000       12.0110           0
     11988 MEMB     91       POPC     H11R     HAL2     0.900000E-01   1.00800           0
     11989 MEMB     91       POPC     H11S     HAL2     0.900000E-01   1.00800           0
     11990 MEMB     91       POPC     C212     CTL2    -0.180000       12.0110           0
     11991 MEMB     91       POPC     H12R     HAL2     0.900000E-01   1.00800           0
     11992 MEMB     91       POPC     H12S     HAL2     0.900000E-01   1.00800           0
     11993 MEMB     91       POPC     C213     CTL2    -0.180000       12.0110           0
     11994 MEMB     91       POPC     H13R     HAL2     0.900000E-01   1.00800           0
     11995 MEMB     91       POPC     H13S     HAL2     0.900000E-01   1.00800           0
     11996 MEMB     91       POPC     C214     CTL2    -0.180000       12.0110           0
     11997 MEMB     91       POPC     H14R     HAL2     0.900000E-01   1.00800           0
     11998 MEMB     91       POPC     H14S     HAL2     0.900000E-01   1.00800           0
     11999 MEMB     91       POPC     C215     CTL2    -0.180000       12.0110           0
     12000 MEMB     91       POPC     H15R     HAL2     0.900000E-01   1.00800           0
     12001 MEMB     91       POPC     H15S     HAL2     0.900000E-01   1.00800           0
     12002 MEMB     91       POPC     C216     CTL2    -0.180000       12.0110           0
     12003 MEMB     91       POPC     H16R     HAL2     0.900000E-01   1.00800           0
     12004 MEMB     91       POPC     H16S     HAL2     0.900000E-01   1.00800           0
     12005 MEMB     91       POPC     C217     CTL2    -0.180000       12.0110           0
     12006 MEMB     91       POPC     H17R     HAL2     0.900000E-01   1.00800           0
     12007 MEMB     91       POPC     H17S     HAL2     0.900000E-01   1.00800           0
     12008 MEMB     91       POPC     C218     CTL3    -0.270000       12.0110           0
     12009 MEMB     91       POPC     H18R     HAL3     0.900000E-01   1.00800           0
     12010 MEMB     91       POPC     H18S     HAL3     0.900000E-01   1.00800           0
     12011 MEMB     91       POPC     H18T     HAL3     0.900000E-01   1.00800           0
     12012 MEMB     91       POPC     C33      CTL2    -0.180000       12.0110           0
     12013 MEMB     91       POPC     H3X      HAL2     0.900000E-01   1.00800           0
     12014 MEMB     91       POPC     H3Y      HAL2     0.900000E-01   1.00800           0
     12015 MEMB     91       POPC     C34      CTL2    -0.180000       12.0110           0
     12016 MEMB     91       POPC     H4X      HAL2     0.900000E-01   1.00800           0
     12017 MEMB     91       POPC     H4Y      HAL2     0.900000E-01   1.00800           0
     12018 MEMB     91       POPC     C35      CTL2    -0.180000       12.0110           0
     12019 MEMB     91       POPC     H5X      HAL2     0.900000E-01   1.00800           0
     12020 MEMB     91       POPC     H5Y      HAL2     0.900000E-01   1.00800           0
     12021 MEMB     91       POPC     C36      CTL2    -0.180000       12.0110           0
     12022 MEMB     91       POPC     H6X      HAL2     0.900000E-01   1.00800           0
     12023 MEMB     91       POPC     H6Y      HAL2     0.900000E-01   1.00800           0
     12024 MEMB     91       POPC     C37      CTL2    -0.180000       12.0110           0
     12025 MEMB     91       POPC     H7X      HAL2     0.900000E-01   1.00800           0
     12026 MEMB     91       POPC     H7Y      HAL2     0.900000E-01   1.00800           0
     12027 MEMB     91       POPC     C38      CTL2    -0.180000       12.0110           0
     12028 MEMB     91       POPC     H8X      HAL2     0.900000E-01   1.00800           0
     12029 MEMB     91       POPC     H8Y      HAL2     0.900000E-01   1.00800           0
     12030 MEMB     91       POPC     C39      CTL2    -0.180000       12.0110           0
     12031 MEMB     91       POPC     H9X      HAL2     0.900000E-01   1.00800           0
     12032 MEMB     91       POPC     H9Y      HAL2     0.900000E-01   1.00800           0
     12033 MEMB     91       POPC     C310     CTL2    -0.180000       12.0110           0
     12034 MEMB     91       POPC     H10X     HAL2     0.900000E-01   1.00800           0
     12035 MEMB     91       POPC     H10Y     HAL2     0.900000E-01   1.00800           0
     12036 MEMB     91       POPC     C311     CTL2    -0.180000       12.0110           0
     12037 MEMB     91       POPC     H11X     HAL2     0.900000E-01   1.00800           0
     12038 MEMB     91       POPC     H11Y     HAL2     0.900000E-01   1.00800           0
     12039 MEMB     91       POPC     C312     CTL2    -0.180000       12.0110           0
     12040 MEMB     91       POPC     H12X     HAL2     0.900000E-01   1.00800           0
     12041 MEMB     91       POPC     H12Y     HAL2     0.900000E-01   1.00800           0
     12042 MEMB     91       POPC     C313     CTL2    -0.180000       12.0110           0
     12043 MEMB     91       POPC     H13X     HAL2     0.900000E-01   1.00800           0
     12044 MEMB     91       POPC     H13Y     HAL2     0.900000E-01   1.00800           0
     12045 MEMB     91       POPC     C314     CTL2    -0.180000       12.0110           0
     12046 MEMB     91       POPC     H14X     HAL2     0.900000E-01   1.00800           0
     12047 MEMB     91       POPC     H14Y     HAL2     0.900000E-01   1.00800           0
     12048 MEMB     91       POPC     C315     CTL2    -0.180000       12.0110           0
     12049 MEMB     91       POPC     H15X     HAL2     0.900000E-01   1.00800           0
     12050 MEMB     91       POPC     H15Y     HAL2     0.900000E-01   1.00800           0
     12051 MEMB     91       POPC     C316     CTL3    -0.270000       12.0110           0
     12052 MEMB     91       POPC     H16X     HAL3     0.900000E-01   1.00800           0
     12053 MEMB     91       POPC     H16Y     HAL3     0.900000E-01   1.00800           0
     12054 MEMB     91       POPC     H16Z     HAL3     0.900000E-01   1.00800           0
     12055 MEMB     92       POPC     N        NTL     -0.600000       14.0070           0
     12056 MEMB     92       POPC     C12      CTL2    -0.100000       12.0110           0
     12057 MEMB     92       POPC     H12A     HL       0.250000       1.00800           0
     12058 MEMB     92       POPC     H12B     HL       0.250000       1.00800           0
     12059 MEMB     92       POPC     C13      CTL5    -0.350000       12.0110           0
     12060 MEMB     92       POPC     H13A     HL       0.250000       1.00800           0
     12061 MEMB     92       POPC     H13B     HL       0.250000       1.00800           0
     12062 MEMB     92       POPC     H13C     HL       0.250000       1.00800           0
     12063 MEMB     92       POPC     C14      CTL5    -0.350000       12.0110           0
     12064 MEMB     92       POPC     H14A     HL       0.250000       1.00800           0
     12065 MEMB     92       POPC     H14B     HL       0.250000       1.00800           0
     12066 MEMB     92       POPC     H14C     HL       0.250000       1.00800           0
     12067 MEMB     92       POPC     C15      CTL5    -0.350000       12.0110           0
     12068 MEMB     92       POPC     H15A     HL       0.250000       1.00800           0
     12069 MEMB     92       POPC     H15B     HL       0.250000       1.00800           0
     12070 MEMB     92       POPC     H15C     HL       0.250000       1.00800           0
     12071 MEMB     92       POPC     C11      CTL2    -0.800000E-01   12.0110           0
     12072 MEMB     92       POPC     H11A     HAL2     0.900000E-01   1.00800           0
     12073 MEMB     92       POPC     H11B     HAL2     0.900000E-01   1.00800           0
     12074 MEMB     92       POPC     P        PL        1.50000       30.9740           0
     12075 MEMB     92       POPC     O13      O2L     -0.780000       15.9994           0
     12076 MEMB     92       POPC     O14      O2L     -0.780000       15.9994           0
     12077 MEMB     92       POPC     O12      OSLP    -0.570000       15.9994           0
     12078 MEMB     92       POPC     O11      OSLP    -0.570000       15.9994           0
     12079 MEMB     92       POPC     C1       CTL2    -0.800000E-01   12.0110           0
     12080 MEMB     92       POPC     HA       HAL2     0.900000E-01   1.00800           0
     12081 MEMB     92       POPC     HB       HAL2     0.900000E-01   1.00800           0
     12082 MEMB     92       POPC     C2       CTL1     0.170000       12.0110           0
     12083 MEMB     92       POPC     HS       HAL1     0.900000E-01   1.00800           0
     12084 MEMB     92       POPC     O21      OSL     -0.490000       15.9994           0
     12085 MEMB     92       POPC     C21      CL       0.900000       12.0110           0
     12086 MEMB     92       POPC     O22      OBL     -0.630000       15.9994           0
     12087 MEMB     92       POPC     C22      CTL2    -0.220000       12.0110           0
     12088 MEMB     92       POPC     H2R      HAL2     0.900000E-01   1.00800           0
     12089 MEMB     92       POPC     H2S      HAL2     0.900000E-01   1.00800           0
     12090 MEMB     92       POPC     C3       CTL2     0.800000E-01   12.0110           0
     12091 MEMB     92       POPC     HX       HAL2     0.900000E-01   1.00800           0
     12092 MEMB     92       POPC     HY       HAL2     0.900000E-01   1.00800           0
     12093 MEMB     92       POPC     O31      OSL     -0.490000       15.9994           0
     12094 MEMB     92       POPC     C31      CL       0.900000       12.0110           0
     12095 MEMB     92       POPC     O32      OBL     -0.630000       15.9994           0
     12096 MEMB     92       POPC     C32      CTL2    -0.220000       12.0110           0
     12097 MEMB     92       POPC     H2X      HAL2     0.900000E-01   1.00800           0
     12098 MEMB     92       POPC     H2Y      HAL2     0.900000E-01   1.00800           0
     12099 MEMB     92       POPC     C23      CTL2    -0.180000       12.0110           0
     12100 MEMB     92       POPC     H3R      HAL2     0.900000E-01   1.00800           0
     12101 MEMB     92       POPC     H3S      HAL2     0.900000E-01   1.00800           0
     12102 MEMB     92       POPC     C24      CTL2    -0.180000       12.0110           0
     12103 MEMB     92       POPC     H4R      HAL2     0.900000E-01   1.00800           0
     12104 MEMB     92       POPC     H4S      HAL2     0.900000E-01   1.00800           0
     12105 MEMB     92       POPC     C25      CTL2    -0.180000       12.0110           0
     12106 MEMB     92       POPC     H5R      HAL2     0.900000E-01   1.00800           0
     12107 MEMB     92       POPC     H5S      HAL2     0.900000E-01   1.00800           0
     12108 MEMB     92       POPC     C26      CTL2    -0.180000       12.0110           0
     12109 MEMB     92       POPC     H6R      HAL2     0.900000E-01   1.00800           0
     12110 MEMB     92       POPC     H6S      HAL2     0.900000E-01   1.00800           0
     12111 MEMB     92       POPC     C27      CTL2    -0.180000       12.0110           0
     12112 MEMB     92       POPC     H7R      HAL2     0.900000E-01   1.00800           0
     12113 MEMB     92       POPC     H7S      HAL2     0.900000E-01   1.00800           0
     12114 MEMB     92       POPC     C28      CTL2    -0.180000       12.0110           0
     12115 MEMB     92       POPC     H8R      HAL2     0.900000E-01   1.00800           0
     12116 MEMB     92       POPC     H8S      HAL2     0.900000E-01   1.00800           0
     12117 MEMB     92       POPC     C29      CEL1    -0.150000       12.0110           0
     12118 MEMB     92       POPC     H91      HEL1     0.150000       1.00800           0
     12119 MEMB     92       POPC     C210     CEL1    -0.150000       12.0110           0
     12120 MEMB     92       POPC     H101     HEL1     0.150000       1.00800           0
     12121 MEMB     92       POPC     C211     CTL2    -0.180000       12.0110           0
     12122 MEMB     92       POPC     H11R     HAL2     0.900000E-01   1.00800           0
     12123 MEMB     92       POPC     H11S     HAL2     0.900000E-01   1.00800           0
     12124 MEMB     92       POPC     C212     CTL2    -0.180000       12.0110           0
     12125 MEMB     92       POPC     H12R     HAL2     0.900000E-01   1.00800           0
     12126 MEMB     92       POPC     H12S     HAL2     0.900000E-01   1.00800           0
     12127 MEMB     92       POPC     C213     CTL2    -0.180000       12.0110           0
     12128 MEMB     92       POPC     H13R     HAL2     0.900000E-01   1.00800           0
     12129 MEMB     92       POPC     H13S     HAL2     0.900000E-01   1.00800           0
     12130 MEMB     92       POPC     C214     CTL2    -0.180000       12.0110           0
     12131 MEMB     92       POPC     H14R     HAL2     0.900000E-01   1.00800           0
     12132 MEMB     92       POPC     H14S     HAL2     0.900000E-01   1.00800           0
     12133 MEMB     92       POPC     C215     CTL2    -0.180000       12.0110           0
     12134 MEMB     92       POPC     H15R     HAL2     0.900000E-01   1.00800           0
     12135 MEMB     92       POPC     H15S     HAL2     0.900000E-01   1.00800           0
     12136 MEMB     92       POPC     C216     CTL2    -0.180000       12.0110           0
     12137 MEMB     92       POPC     H16R     HAL2     0.900000E-01   1.00800           0
     12138 MEMB     92       POPC     H16S     HAL2     0.900000E-01   1.00800           0
     12139 MEMB     92       POPC     C217     CTL2    -0.180000       12.0110           0
     12140 MEMB     92       POPC     H17R     HAL2     0.900000E-01   1.00800           0
     12141 MEMB     92       POPC     H17S     HAL2     0.900000E-01   1.00800           0
     12142 MEMB     92       POPC     C218     CTL3    -0.270000       12.0110           0
     12143 MEMB     92       POPC     H18R     HAL3     0.900000E-01   1.00800           0
     12144 MEMB     92       POPC     H18S     HAL3     0.900000E-01   1.00800           0
     12145 MEMB     92       POPC     H18T     HAL3     0.900000E-01   1.00800           0
     12146 MEMB     92       POPC     C33      CTL2    -0.180000       12.0110           0
     12147 MEMB     92       POPC     H3X      HAL2     0.900000E-01   1.00800           0
     12148 MEMB     92       POPC     H3Y      HAL2     0.900000E-01   1.00800           0
     12149 MEMB     92       POPC     C34      CTL2    -0.180000       12.0110           0
     12150 MEMB     92       POPC     H4X      HAL2     0.900000E-01   1.00800           0
     12151 MEMB     92       POPC     H4Y      HAL2     0.900000E-01   1.00800           0
     12152 MEMB     92       POPC     C35      CTL2    -0.180000       12.0110           0
     12153 MEMB     92       POPC     H5X      HAL2     0.900000E-01   1.00800           0
     12154 MEMB     92       POPC     H5Y      HAL2     0.900000E-01   1.00800           0
     12155 MEMB     92       POPC     C36      CTL2    -0.180000       12.0110           0
     12156 MEMB     92       POPC     H6X      HAL2     0.900000E-01   1.00800           0
     12157 MEMB     92       POPC     H6Y      HAL2     0.900000E-01   1.00800           0
     12158 MEMB     92       POPC     C37      CTL2    -0.180000       12.0110           0
     12159 MEMB     92       POPC     H7X      HAL2     0.900000E-01   1.00800           0
     12160 MEMB     92       POPC     H7Y      HAL2     0.900000E-01   1.00800           0
     12161 MEMB     92       POPC     C38      CTL2    -0.180000       12.0110           0
     12162 MEMB     92       POPC     H8X      HAL2     0.900000E-01   1.00800           0
     12163 MEMB     92       POPC     H8Y      HAL2     0.900000E-01   1.00800           0
     12164 MEMB     92       POPC     C39      CTL2    -0.180000       12.0110           0
     12165 MEMB     92       POPC     H9X      HAL2     0.900000E-01   1.00800           0
     12166 MEMB     92       POPC     H9Y      HAL2     0.900000E-01   1.00800           0
     12167 MEMB     92       POPC     C310     CTL2    -0.180000       12.0110           0
     12168 MEMB     92       POPC     H10X     HAL2     0.900000E-01   1.00800           0
     12169 MEMB     92       POPC     H10Y     HAL2     0.900000E-01   1.00800           0
     12170 MEMB     92       POPC     C311     CTL2    -0.180000       12.0110           0
     12171 MEMB     92       POPC     H11X     HAL2     0.900000E-01   1.00800           0
     12172 MEMB     92       POPC     H11Y     HAL2     0.900000E-01   1.00800           0
     12173 MEMB     92       POPC     C312     CTL2    -0.180000       12.0110           0
     12174 MEMB     92       POPC     H12X     HAL2     0.900000E-01   1.00800           0
     12175 MEMB     92       POPC     H12Y     HAL2     0.900000E-01   1.00800           0
     12176 MEMB     92       POPC     C313     CTL2    -0.180000       12.0110           0
     12177 MEMB     92       POPC     H13X     HAL2     0.900000E-01   1.00800           0
     12178 MEMB     92       POPC     H13Y     HAL2     0.900000E-01   1.00800           0
     12179 MEMB     92       POPC     C314     CTL2    -0.180000       12.0110           0
     12180 MEMB     92       POPC     H14X     HAL2     0.900000E-01   1.00800           0
     12181 MEMB     92       POPC     H14Y     HAL2     0.900000E-01   1.00800           0
     12182 MEMB     92       POPC     C315     CTL2    -0.180000       12.0110           0
     12183 MEMB     92       POPC     H15X     HAL2     0.900000E-01   1.00800           0
     12184 MEMB     92       POPC     H15Y     HAL2     0.900000E-01   1.00800           0
     12185 MEMB     92       POPC     C316     CTL3    -0.270000       12.0110           0
     12186 MEMB     92       POPC     H16X     HAL3     0.900000E-01   1.00800           0
     12187 MEMB     92       POPC     H16Y     HAL3     0.900000E-01   1.00800           0
     12188 MEMB     92       POPC     H16Z     HAL3     0.900000E-01   1.00800           0
     12189 MEMB     93       POPC     N        NTL     -0.600000       14.0070           0
     12190 MEMB     93       POPC     C12      CTL2    -0.100000       12.0110           0
     12191 MEMB     93       POPC     H12A     HL       0.250000       1.00800           0
     12192 MEMB     93       POPC     H12B     HL       0.250000       1.00800           0
     12193 MEMB     93       POPC     C13      CTL5    -0.350000       12.0110           0
     12194 MEMB     93       POPC     H13A     HL       0.250000       1.00800           0
     12195 MEMB     93       POPC     H13B     HL       0.250000       1.00800           0
     12196 MEMB     93       POPC     H13C     HL       0.250000       1.00800           0
     12197 MEMB     93       POPC     C14      CTL5    -0.350000       12.0110           0
     12198 MEMB     93       POPC     H14A     HL       0.250000       1.00800           0
     12199 MEMB     93       POPC     H14B     HL       0.250000       1.00800           0
     12200 MEMB     93       POPC     H14C     HL       0.250000       1.00800           0
     12201 MEMB     93       POPC     C15      CTL5    -0.350000       12.0110           0
     12202 MEMB     93       POPC     H15A     HL       0.250000       1.00800           0
     12203 MEMB     93       POPC     H15B     HL       0.250000       1.00800           0
     12204 MEMB     93       POPC     H15C     HL       0.250000       1.00800           0
     12205 MEMB     93       POPC     C11      CTL2    -0.800000E-01   12.0110           0
     12206 MEMB     93       POPC     H11A     HAL2     0.900000E-01   1.00800           0
     12207 MEMB     93       POPC     H11B     HAL2     0.900000E-01   1.00800           0
     12208 MEMB     93       POPC     P        PL        1.50000       30.9740           0
     12209 MEMB     93       POPC     O13      O2L     -0.780000       15.9994           0
     12210 MEMB     93       POPC     O14      O2L     -0.780000       15.9994           0
     12211 MEMB     93       POPC     O12      OSLP    -0.570000       15.9994           0
     12212 MEMB     93       POPC     O11      OSLP    -0.570000       15.9994           0
     12213 MEMB     93       POPC     C1       CTL2    -0.800000E-01   12.0110           0
     12214 MEMB     93       POPC     HA       HAL2     0.900000E-01   1.00800           0
     12215 MEMB     93       POPC     HB       HAL2     0.900000E-01   1.00800           0
     12216 MEMB     93       POPC     C2       CTL1     0.170000       12.0110           0
     12217 MEMB     93       POPC     HS       HAL1     0.900000E-01   1.00800           0
     12218 MEMB     93       POPC     O21      OSL     -0.490000       15.9994           0
     12219 MEMB     93       POPC     C21      CL       0.900000       12.0110           0
     12220 MEMB     93       POPC     O22      OBL     -0.630000       15.9994           0
     12221 MEMB     93       POPC     C22      CTL2    -0.220000       12.0110           0
     12222 MEMB     93       POPC     H2R      HAL2     0.900000E-01   1.00800           0
     12223 MEMB     93       POPC     H2S      HAL2     0.900000E-01   1.00800           0
     12224 MEMB     93       POPC     C3       CTL2     0.800000E-01   12.0110           0
     12225 MEMB     93       POPC     HX       HAL2     0.900000E-01   1.00800           0
     12226 MEMB     93       POPC     HY       HAL2     0.900000E-01   1.00800           0
     12227 MEMB     93       POPC     O31      OSL     -0.490000       15.9994           0
     12228 MEMB     93       POPC     C31      CL       0.900000       12.0110           0
     12229 MEMB     93       POPC     O32      OBL     -0.630000       15.9994           0
     12230 MEMB     93       POPC     C32      CTL2    -0.220000       12.0110           0
     12231 MEMB     93       POPC     H2X      HAL2     0.900000E-01   1.00800           0
     12232 MEMB     93       POPC     H2Y      HAL2     0.900000E-01   1.00800           0
     12233 MEMB     93       POPC     C23      CTL2    -0.180000       12.0110           0
     12234 MEMB     93       POPC     H3R      HAL2     0.900000E-01   1.00800           0
     12235 MEMB     93       POPC     H3S      HAL2     0.900000E-01   1.00800           0
     12236 MEMB     93       POPC     C24      CTL2    -0.180000       12.0110           0
     12237 MEMB     93       POPC     H4R      HAL2     0.900000E-01   1.00800           0
     12238 MEMB     93       POPC     H4S      HAL2     0.900000E-01   1.00800           0
     12239 MEMB     93       POPC     C25      CTL2    -0.180000       12.0110           0
     12240 MEMB     93       POPC     H5R      HAL2     0.900000E-01   1.00800           0
     12241 MEMB     93       POPC     H5S      HAL2     0.900000E-01   1.00800           0
     12242 MEMB     93       POPC     C26      CTL2    -0.180000       12.0110           0
     12243 MEMB     93       POPC     H6R      HAL2     0.900000E-01   1.00800           0
     12244 MEMB     93       POPC     H6S      HAL2     0.900000E-01   1.00800           0
     12245 MEMB     93       POPC     C27      CTL2    -0.180000       12.0110           0
     12246 MEMB     93       POPC     H7R      HAL2     0.900000E-01   1.00800           0
     12247 MEMB     93       POPC     H7S      HAL2     0.900000E-01   1.00800           0
     12248 MEMB     93       POPC     C28      CTL2    -0.180000       12.0110           0
     12249 MEMB     93       POPC     H8R      HAL2     0.900000E-01   1.00800           0
     12250 MEMB     93       POPC     H8S      HAL2     0.900000E-01   1.00800           0
     12251 MEMB     93       POPC     C29      CEL1    -0.150000       12.0110           0
     12252 MEMB     93       POPC     H91      HEL1     0.150000       1.00800           0
     12253 MEMB     93       POPC     C210     CEL1    -0.150000       12.0110           0
     12254 MEMB     93       POPC     H101     HEL1     0.150000       1.00800           0
     12255 MEMB     93       POPC     C211     CTL2    -0.180000       12.0110           0
     12256 MEMB     93       POPC     H11R     HAL2     0.900000E-01   1.00800           0
     12257 MEMB     93       POPC     H11S     HAL2     0.900000E-01   1.00800           0
     12258 MEMB     93       POPC     C212     CTL2    -0.180000       12.0110           0
     12259 MEMB     93       POPC     H12R     HAL2     0.900000E-01   1.00800           0
     12260 MEMB     93       POPC     H12S     HAL2     0.900000E-01   1.00800           0
     12261 MEMB     93       POPC     C213     CTL2    -0.180000       12.0110           0
     12262 MEMB     93       POPC     H13R     HAL2     0.900000E-01   1.00800           0
     12263 MEMB     93       POPC     H13S     HAL2     0.900000E-01   1.00800           0
     12264 MEMB     93       POPC     C214     CTL2    -0.180000       12.0110           0
     12265 MEMB     93       POPC     H14R     HAL2     0.900000E-01   1.00800           0
     12266 MEMB     93       POPC     H14S     HAL2     0.900000E-01   1.00800           0
     12267 MEMB     93       POPC     C215     CTL2    -0.180000       12.0110           0
     12268 MEMB     93       POPC     H15R     HAL2     0.900000E-01   1.00800           0
     12269 MEMB     93       POPC     H15S     HAL2     0.900000E-01   1.00800           0
     12270 MEMB     93       POPC     C216     CTL2    -0.180000       12.0110           0
     12271 MEMB     93       POPC     H16R     HAL2     0.900000E-01   1.00800           0
     12272 MEMB     93       POPC     H16S     HAL2     0.900000E-01   1.00800           0
     12273 MEMB     93       POPC     C217     CTL2    -0.180000       12.0110           0
     12274 MEMB     93       POPC     H17R     HAL2     0.900000E-01   1.00800           0
     12275 MEMB     93       POPC     H17S     HAL2     0.900000E-01   1.00800           0
     12276 MEMB     93       POPC     C218     CTL3    -0.270000       12.0110           0
     12277 MEMB     93       POPC     H18R     HAL3     0.900000E-01   1.00800           0
     12278 MEMB     93       POPC     H18S     HAL3     0.900000E-01   1.00800           0
     12279 MEMB     93       POPC     H18T     HAL3     0.900000E-01   1.00800           0
     12280 MEMB     93       POPC     C33      CTL2    -0.180000       12.0110           0
     12281 MEMB     93       POPC     H3X      HAL2     0.900000E-01   1.00800           0
     12282 MEMB     93       POPC     H3Y      HAL2     0.900000E-01   1.00800           0
     12283 MEMB     93       POPC     C34      CTL2    -0.180000       12.0110           0
     12284 MEMB     93       POPC     H4X      HAL2     0.900000E-01   1.00800           0
     12285 MEMB     93       POPC     H4Y      HAL2     0.900000E-01   1.00800           0
     12286 MEMB     93       POPC     C35      CTL2    -0.180000       12.0110           0
     12287 MEMB     93       POPC     H5X      HAL2     0.900000E-01   1.00800           0
     12288 MEMB     93       POPC     H5Y      HAL2     0.900000E-01   1.00800           0
     12289 MEMB     93       POPC     C36      CTL2    -0.180000       12.0110           0
     12290 MEMB     93       POPC     H6X      HAL2     0.900000E-01   1.00800           0
     12291 MEMB     93       POPC     H6Y      HAL2     0.900000E-01   1.00800           0
     12292 MEMB     93       POPC     C37      CTL2    -0.180000       12.0110           0
     12293 MEMB     93       POPC     H7X      HAL2     0.900000E-01   1.00800           0
     12294 MEMB     93       POPC     H7Y      HAL2     0.900000E-01   1.00800           0
     12295 MEMB     93       POPC     C38      CTL2    -0.180000       12.0110           0
     12296 MEMB     93       POPC     H8X      HAL2     0.900000E-01   1.00800           0
     12297 MEMB     93       POPC     H8Y      HAL2     0.900000E-01   1.00800           0
     12298 MEMB     93       POPC     C39      CTL2    -0.180000       12.0110           0
     12299 MEMB     93       POPC     H9X      HAL2     0.900000E-01   1.00800           0
     12300 MEMB     93       POPC     H9Y      HAL2     0.900000E-01   1.00800           0
     12301 MEMB     93       POPC     C310     CTL2    -0.180000       12.0110           0
     12302 MEMB     93       POPC     H10X     HAL2     0.900000E-01   1.00800           0
     12303 MEMB     93       POPC     H10Y     HAL2     0.900000E-01   1.00800           0
     12304 MEMB     93       POPC     C311     CTL2    -0.180000       12.0110           0
     12305 MEMB     93       POPC     H11X     HAL2     0.900000E-01   1.00800           0
     12306 MEMB     93       POPC     H11Y     HAL2     0.900000E-01   1.00800           0
     12307 MEMB     93       POPC     C312     CTL2    -0.180000       12.0110           0
     12308 MEMB     93       POPC     H12X     HAL2     0.900000E-01   1.00800           0
     12309 MEMB     93       POPC     H12Y     HAL2     0.900000E-01   1.00800           0
     12310 MEMB     93       POPC     C313     CTL2    -0.180000       12.0110           0
     12311 MEMB     93       POPC     H13X     HAL2     0.900000E-01   1.00800           0
     12312 MEMB     93       POPC     H13Y     HAL2     0.900000E-01   1.00800           0
     12313 MEMB     93       POPC     C314     CTL2    -0.180000       12.0110           0
     12314 MEMB     93       POPC     H14X     HAL2     0.900000E-01   1.00800           0
     12315 MEMB     93       POPC     H14Y     HAL2     0.900000E-01   1.00800           0
     12316 MEMB     93       POPC     C315     CTL2    -0.180000       12.0110           0
     12317 MEMB     93       POPC     H15X     HAL2     0.900000E-01   1.00800           0
     12318 MEMB     93       POPC     H15Y     HAL2     0.900000E-01   1.00800           0
     12319 MEMB     93       POPC     C316     CTL3    -0.270000       12.0110           0
     12320 MEMB     93       POPC     H16X     HAL3     0.900000E-01   1.00800           0
     12321 MEMB     93       POPC     H16Y     HAL3     0.900000E-01   1.00800           0
     12322 MEMB     93       POPC     H16Z     HAL3     0.900000E-01   1.00800           0
     12323 MEMB     94       POPC     N        NTL     -0.600000       14.0070           0
     12324 MEMB     94       POPC     C12      CTL2    -0.100000       12.0110           0
     12325 MEMB     94       POPC     H12A     HL       0.250000       1.00800           0
     12326 MEMB     94       POPC     H12B     HL       0.250000       1.00800           0
     12327 MEMB     94       POPC     C13      CTL5    -0.350000       12.0110           0
     12328 MEMB     94       POPC     H13A     HL       0.250000       1.00800           0
     12329 MEMB     94       POPC     H13B     HL       0.250000       1.00800           0
     12330 MEMB     94       POPC     H13C     HL       0.250000       1.00800           0
     12331 MEMB     94       POPC     C14      CTL5    -0.350000       12.0110           0
     12332 MEMB     94       POPC     H14A     HL       0.250000       1.00800           0
     12333 MEMB     94       POPC     H14B     HL       0.250000       1.00800           0
     12334 MEMB     94       POPC     H14C     HL       0.250000       1.00800           0
     12335 MEMB     94       POPC     C15      CTL5    -0.350000       12.0110           0
     12336 MEMB     94       POPC     H15A     HL       0.250000       1.00800           0
     12337 MEMB     94       POPC     H15B     HL       0.250000       1.00800           0
     12338 MEMB     94       POPC     H15C     HL       0.250000       1.00800           0
     12339 MEMB     94       POPC     C11      CTL2    -0.800000E-01   12.0110           0
     12340 MEMB     94       POPC     H11A     HAL2     0.900000E-01   1.00800           0
     12341 MEMB     94       POPC     H11B     HAL2     0.900000E-01   1.00800           0
     12342 MEMB     94       POPC     P        PL        1.50000       30.9740           0
     12343 MEMB     94       POPC     O13      O2L     -0.780000       15.9994           0
     12344 MEMB     94       POPC     O14      O2L     -0.780000       15.9994           0
     12345 MEMB     94       POPC     O12      OSLP    -0.570000       15.9994           0
     12346 MEMB     94       POPC     O11      OSLP    -0.570000       15.9994           0
     12347 MEMB     94       POPC     C1       CTL2    -0.800000E-01   12.0110           0
     12348 MEMB     94       POPC     HA       HAL2     0.900000E-01   1.00800           0
     12349 MEMB     94       POPC     HB       HAL2     0.900000E-01   1.00800           0
     12350 MEMB     94       POPC     C2       CTL1     0.170000       12.0110           0
     12351 MEMB     94       POPC     HS       HAL1     0.900000E-01   1.00800           0
     12352 MEMB     94       POPC     O21      OSL     -0.490000       15.9994           0
     12353 MEMB     94       POPC     C21      CL       0.900000       12.0110           0
     12354 MEMB     94       POPC     O22      OBL     -0.630000       15.9994           0
     12355 MEMB     94       POPC     C22      CTL2    -0.220000       12.0110           0
     12356 MEMB     94       POPC     H2R      HAL2     0.900000E-01   1.00800           0
     12357 MEMB     94       POPC     H2S      HAL2     0.900000E-01   1.00800           0
     12358 MEMB     94       POPC     C3       CTL2     0.800000E-01   12.0110           0
     12359 MEMB     94       POPC     HX       HAL2     0.900000E-01   1.00800           0
     12360 MEMB     94       POPC     HY       HAL2     0.900000E-01   1.00800           0
     12361 MEMB     94       POPC     O31      OSL     -0.490000       15.9994           0
     12362 MEMB     94       POPC     C31      CL       0.900000       12.0110           0
     12363 MEMB     94       POPC     O32      OBL     -0.630000       15.9994           0
     12364 MEMB     94       POPC     C32      CTL2    -0.220000       12.0110           0
     12365 MEMB     94       POPC     H2X      HAL2     0.900000E-01   1.00800           0
     12366 MEMB     94       POPC     H2Y      HAL2     0.900000E-01   1.00800           0
     12367 MEMB     94       POPC     C23      CTL2    -0.180000       12.0110           0
     12368 MEMB     94       POPC     H3R      HAL2     0.900000E-01   1.00800           0
     12369 MEMB     94       POPC     H3S      HAL2     0.900000E-01   1.00800           0
     12370 MEMB     94       POPC     C24      CTL2    -0.180000       12.0110           0
     12371 MEMB     94       POPC     H4R      HAL2     0.900000E-01   1.00800           0
     12372 MEMB     94       POPC     H4S      HAL2     0.900000E-01   1.00800           0
     12373 MEMB     94       POPC     C25      CTL2    -0.180000       12.0110           0
     12374 MEMB     94       POPC     H5R      HAL2     0.900000E-01   1.00800           0
     12375 MEMB     94       POPC     H5S      HAL2     0.900000E-01   1.00800           0
     12376 MEMB     94       POPC     C26      CTL2    -0.180000       12.0110           0
     12377 MEMB     94       POPC     H6R      HAL2     0.900000E-01   1.00800           0
     12378 MEMB     94       POPC     H6S      HAL2     0.900000E-01   1.00800           0
     12379 MEMB     94       POPC     C27      CTL2    -0.180000       12.0110           0
     12380 MEMB     94       POPC     H7R      HAL2     0.900000E-01   1.00800           0
     12381 MEMB     94       POPC     H7S      HAL2     0.900000E-01   1.00800           0
     12382 MEMB     94       POPC     C28      CTL2    -0.180000       12.0110           0
     12383 MEMB     94       POPC     H8R      HAL2     0.900000E-01   1.00800           0
     12384 MEMB     94       POPC     H8S      HAL2     0.900000E-01   1.00800           0
     12385 MEMB     94       POPC     C29      CEL1    -0.150000       12.0110           0
     12386 MEMB     94       POPC     H91      HEL1     0.150000       1.00800           0
     12387 MEMB     94       POPC     C210     CEL1    -0.150000       12.0110           0
     12388 MEMB     94       POPC     H101     HEL1     0.150000       1.00800           0
     12389 MEMB     94       POPC     C211     CTL2    -0.180000       12.0110           0
     12390 MEMB     94       POPC     H11R     HAL2     0.900000E-01   1.00800           0
     12391 MEMB     94       POPC     H11S     HAL2     0.900000E-01   1.00800           0
     12392 MEMB     94       POPC     C212     CTL2    -0.180000       12.0110           0
     12393 MEMB     94       POPC     H12R     HAL2     0.900000E-01   1.00800           0
     12394 MEMB     94       POPC     H12S     HAL2     0.900000E-01   1.00800           0
     12395 MEMB     94       POPC     C213     CTL2    -0.180000       12.0110           0
     12396 MEMB     94       POPC     H13R     HAL2     0.900000E-01   1.00800           0
     12397 MEMB     94       POPC     H13S     HAL2     0.900000E-01   1.00800           0
     12398 MEMB     94       POPC     C214     CTL2    -0.180000       12.0110           0
     12399 MEMB     94       POPC     H14R     HAL2     0.900000E-01   1.00800           0
     12400 MEMB     94       POPC     H14S     HAL2     0.900000E-01   1.00800           0
     12401 MEMB     94       POPC     C215     CTL2    -0.180000       12.0110           0
     12402 MEMB     94       POPC     H15R     HAL2     0.900000E-01   1.00800           0
     12403 MEMB     94       POPC     H15S     HAL2     0.900000E-01   1.00800           0
     12404 MEMB     94       POPC     C216     CTL2    -0.180000       12.0110           0
     12405 MEMB     94       POPC     H16R     HAL2     0.900000E-01   1.00800           0
     12406 MEMB     94       POPC     H16S     HAL2     0.900000E-01   1.00800           0
     12407 MEMB     94       POPC     C217     CTL2    -0.180000       12.0110           0
     12408 MEMB     94       POPC     H17R     HAL2     0.900000E-01   1.00800           0
     12409 MEMB     94       POPC     H17S     HAL2     0.900000E-01   1.00800           0
     12410 MEMB     94       POPC     C218     CTL3    -0.270000       12.0110           0
     12411 MEMB     94       POPC     H18R     HAL3     0.900000E-01   1.00800           0
     12412 MEMB     94       POPC     H18S     HAL3     0.900000E-01   1.00800           0
     12413 MEMB     94       POPC     H18T     HAL3     0.900000E-01   1.00800           0
     12414 MEMB     94       POPC     C33      CTL2    -0.180000       12.0110           0
     12415 MEMB     94       POPC     H3X      HAL2     0.900000E-01   1.00800           0
     12416 MEMB     94       POPC     H3Y      HAL2     0.900000E-01   1.00800           0
     12417 MEMB     94       POPC     C34      CTL2    -0.180000       12.0110           0
     12418 MEMB     94       POPC     H4X      HAL2     0.900000E-01   1.00800           0
     12419 MEMB     94       POPC     H4Y      HAL2     0.900000E-01   1.00800           0
     12420 MEMB     94       POPC     C35      CTL2    -0.180000       12.0110           0
     12421 MEMB     94       POPC     H5X      HAL2     0.900000E-01   1.00800           0
     12422 MEMB     94       POPC     H5Y      HAL2     0.900000E-01   1.00800           0
     12423 MEMB     94       POPC     C36      CTL2    -0.180000       12.0110           0
     12424 MEMB     94       POPC     H6X      HAL2     0.900000E-01   1.00800           0
     12425 MEMB     94       POPC     H6Y      HAL2     0.900000E-01   1.00800           0
     12426 MEMB     94       POPC     C37      CTL2    -0.180000       12.0110           0
     12427 MEMB     94       POPC     H7X      HAL2     0.900000E-01   1.00800           0
     12428 MEMB     94       POPC     H7Y      HAL2     0.900000E-01   1.00800           0
     12429 MEMB     94       POPC     C38      CTL2    -0.180000       12.0110           0
     12430 MEMB     94       POPC     H8X      HAL2     0.900000E-01   1.00800           0
     12431 MEMB     94       POPC     H8Y      HAL2     0.900000E-01   1.00800           0
     12432 MEMB     94       POPC     C39      CTL2    -0.180000       12.0110           0
     12433 MEMB     94       POPC     H9X      HAL2     0.900000E-01   1.00800           0
     12434 MEMB     94       POPC     H9Y      HAL2     0.900000E-01   1.00800           0
     12435 MEMB     94       POPC     C310     CTL2    -0.180000       12.0110           0
     12436 MEMB     94       POPC     H10X     HAL2     0.900000E-01   1.00800           0
     12437 MEMB     94       POPC     H10Y     HAL2     0.900000E-01   1.00800           0
     12438 MEMB     94       POPC     C311     CTL2    -0.180000       12.0110           0
     12439 MEMB     94       POPC     H11X     HAL2     0.900000E-01   1.00800           0
     12440 MEMB     94       POPC     H11Y     HAL2     0.900000E-01   1.00800           0
     12441 MEMB     94       POPC     C312     CTL2    -0.180000       12.0110           0
     12442 MEMB     94       POPC     H12X     HAL2     0.900000E-01   1.00800           0
     12443 MEMB     94       POPC     H12Y     HAL2     0.900000E-01   1.00800           0
     12444 MEMB     94       POPC     C313     CTL2    -0.180000       12.0110           0
     12445 MEMB     94       POPC     H13X     HAL2     0.900000E-01   1.00800           0
     12446 MEMB     94       POPC     H13Y     HAL2     0.900000E-01   1.00800           0
     12447 MEMB     94       POPC     C314     CTL2    -0.180000       12.0110           0
     12448 MEMB     94       POPC     H14X     HAL2     0.900000E-01   1.00800           0
     12449 MEMB     94       POPC     H14Y     HAL2     0.900000E-01   1.00800           0
     12450 MEMB     94       POPC     C315     CTL2    -0.180000       12.0110           0
     12451 MEMB     94       POPC     H15X     HAL2     0.900000E-01   1.00800           0
     12452 MEMB     94       POPC     H15Y     HAL2     0.900000E-01   1.00800           0
     12453 MEMB     94       POPC     C316     CTL3    -0.270000       12.0110           0
     12454 MEMB     94       POPC     H16X     HAL3     0.900000E-01   1.00800           0
     12455 MEMB     94       POPC     H16Y     HAL3     0.900000E-01   1.00800           0
     12456 MEMB     94       POPC     H16Z     HAL3     0.900000E-01   1.00800           0
     12457 MEMB     95       POPC     N        NTL     -0.600000       14.0070           0
     12458 MEMB     95       POPC     C12      CTL2    -0.100000       12.0110           0
     12459 MEMB     95       POPC     H12A     HL       0.250000       1.00800           0
     12460 MEMB     95       POPC     H12B     HL       0.250000       1.00800           0
     12461 MEMB     95       POPC     C13      CTL5    -0.350000       12.0110           0
     12462 MEMB     95       POPC     H13A     HL       0.250000       1.00800           0
     12463 MEMB     95       POPC     H13B     HL       0.250000       1.00800           0
     12464 MEMB     95       POPC     H13C     HL       0.250000       1.00800           0
     12465 MEMB     95       POPC     C14      CTL5    -0.350000       12.0110           0
     12466 MEMB     95       POPC     H14A     HL       0.250000       1.00800           0
     12467 MEMB     95       POPC     H14B     HL       0.250000       1.00800           0
     12468 MEMB     95       POPC     H14C     HL       0.250000       1.00800           0
     12469 MEMB     95       POPC     C15      CTL5    -0.350000       12.0110           0
     12470 MEMB     95       POPC     H15A     HL       0.250000       1.00800           0
     12471 MEMB     95       POPC     H15B     HL       0.250000       1.00800           0
     12472 MEMB     95       POPC     H15C     HL       0.250000       1.00800           0
     12473 MEMB     95       POPC     C11      CTL2    -0.800000E-01   12.0110           0
     12474 MEMB     95       POPC     H11A     HAL2     0.900000E-01   1.00800           0
     12475 MEMB     95       POPC     H11B     HAL2     0.900000E-01   1.00800           0
     12476 MEMB     95       POPC     P        PL        1.50000       30.9740           0
     12477 MEMB     95       POPC     O13      O2L     -0.780000       15.9994           0
     12478 MEMB     95       POPC     O14      O2L     -0.780000       15.9994           0
     12479 MEMB     95       POPC     O12      OSLP    -0.570000       15.9994           0
     12480 MEMB     95       POPC     O11      OSLP    -0.570000       15.9994           0
     12481 MEMB     95       POPC     C1       CTL2    -0.800000E-01   12.0110           0
     12482 MEMB     95       POPC     HA       HAL2     0.900000E-01   1.00800           0
     12483 MEMB     95       POPC     HB       HAL2     0.900000E-01   1.00800           0
     12484 MEMB     95       POPC     C2       CTL1     0.170000       12.0110           0
     12485 MEMB     95       POPC     HS       HAL1     0.900000E-01   1.00800           0
     12486 MEMB     95       POPC     O21      OSL     -0.490000       15.9994           0
     12487 MEMB     95       POPC     C21      CL       0.900000       12.0110           0
     12488 MEMB     95       POPC     O22      OBL     -0.630000       15.9994           0
     12489 MEMB     95       POPC     C22      CTL2    -0.220000       12.0110           0
     12490 MEMB     95       POPC     H2R      HAL2     0.900000E-01   1.00800           0
     12491 MEMB     95       POPC     H2S      HAL2     0.900000E-01   1.00800           0
     12492 MEMB     95       POPC     C3       CTL2     0.800000E-01   12.0110           0
     12493 MEMB     95       POPC     HX       HAL2     0.900000E-01   1.00800           0
     12494 MEMB     95       POPC     HY       HAL2     0.900000E-01   1.00800           0
     12495 MEMB     95       POPC     O31      OSL     -0.490000       15.9994           0
     12496 MEMB     95       POPC     C31      CL       0.900000       12.0110           0
     12497 MEMB     95       POPC     O32      OBL     -0.630000       15.9994           0
     12498 MEMB     95       POPC     C32      CTL2    -0.220000       12.0110           0
     12499 MEMB     95       POPC     H2X      HAL2     0.900000E-01   1.00800           0
     12500 MEMB     95       POPC     H2Y      HAL2     0.900000E-01   1.00800           0
     12501 MEMB     95       POPC     C23      CTL2    -0.180000       12.0110           0
     12502 MEMB     95       POPC     H3R      HAL2     0.900000E-01   1.00800           0
     12503 MEMB     95       POPC     H3S      HAL2     0.900000E-01   1.00800           0
     12504 MEMB     95       POPC     C24      CTL2    -0.180000       12.0110           0
     12505 MEMB     95       POPC     H4R      HAL2     0.900000E-01   1.00800           0
     12506 MEMB     95       POPC     H4S      HAL2     0.900000E-01   1.00800           0
     12507 MEMB     95       POPC     C25      CTL2    -0.180000       12.0110           0
     12508 MEMB     95       POPC     H5R      HAL2     0.900000E-01   1.00800           0
     12509 MEMB     95       POPC     H5S      HAL2     0.900000E-01   1.00800           0
     12510 MEMB     95       POPC     C26      CTL2    -0.180000       12.0110           0
     12511 MEMB     95       POPC     H6R      HAL2     0.900000E-01   1.00800           0
     12512 MEMB     95       POPC     H6S      HAL2     0.900000E-01   1.00800           0
     12513 MEMB     95       POPC     C27      CTL2    -0.180000       12.0110           0
     12514 MEMB     95       POPC     H7R      HAL2     0.900000E-01   1.00800           0
     12515 MEMB     95       POPC     H7S      HAL2     0.900000E-01   1.00800           0
     12516 MEMB     95       POPC     C28      CTL2    -0.180000       12.0110           0
     12517 MEMB     95       POPC     H8R      HAL2     0.900000E-01   1.00800           0
     12518 MEMB     95       POPC     H8S      HAL2     0.900000E-01   1.00800           0
     12519 MEMB     95       POPC     C29      CEL1    -0.150000       12.0110           0
     12520 MEMB     95       POPC     H91      HEL1     0.150000       1.00800           0
     12521 MEMB     95       POPC     C210     CEL1    -0.150000       12.0110           0
     12522 MEMB     95       POPC     H101     HEL1     0.150000       1.00800           0
     12523 MEMB     95       POPC     C211     CTL2    -0.180000       12.0110           0
     12524 MEMB     95       POPC     H11R     HAL2     0.900000E-01   1.00800           0
     12525 MEMB     95       POPC     H11S     HAL2     0.900000E-01   1.00800           0
     12526 MEMB     95       POPC     C212     CTL2    -0.180000       12.0110           0
     12527 MEMB     95       POPC     H12R     HAL2     0.900000E-01   1.00800           0
     12528 MEMB     95       POPC     H12S     HAL2     0.900000E-01   1.00800           0
     12529 MEMB     95       POPC     C213     CTL2    -0.180000       12.0110           0
     12530 MEMB     95       POPC     H13R     HAL2     0.900000E-01   1.00800           0
     12531 MEMB     95       POPC     H13S     HAL2     0.900000E-01   1.00800           0
     12532 MEMB     95       POPC     C214     CTL2    -0.180000       12.0110           0
     12533 MEMB     95       POPC     H14R     HAL2     0.900000E-01   1.00800           0
     12534 MEMB     95       POPC     H14S     HAL2     0.900000E-01   1.00800           0
     12535 MEMB     95       POPC     C215     CTL2    -0.180000       12.0110           0
     12536 MEMB     95       POPC     H15R     HAL2     0.900000E-01   1.00800           0
     12537 MEMB     95       POPC     H15S     HAL2     0.900000E-01   1.00800           0
     12538 MEMB     95       POPC     C216     CTL2    -0.180000       12.0110           0
     12539 MEMB     95       POPC     H16R     HAL2     0.900000E-01   1.00800           0
     12540 MEMB     95       POPC     H16S     HAL2     0.900000E-01   1.00800           0
     12541 MEMB     95       POPC     C217     CTL2    -0.180000       12.0110           0
     12542 MEMB     95       POPC     H17R     HAL2     0.900000E-01   1.00800           0
     12543 MEMB     95       POPC     H17S     HAL2     0.900000E-01   1.00800           0
     12544 MEMB     95       POPC     C218     CTL3    -0.270000       12.0110           0
     12545 MEMB     95       POPC     H18R     HAL3     0.900000E-01   1.00800           0
     12546 MEMB     95       POPC     H18S     HAL3     0.900000E-01   1.00800           0
     12547 MEMB     95       POPC     H18T     HAL3     0.900000E-01   1.00800           0
     12548 MEMB     95       POPC     C33      CTL2    -0.180000       12.0110           0
     12549 MEMB     95       POPC     H3X      HAL2     0.900000E-01   1.00800           0
     12550 MEMB     95       POPC     H3Y      HAL2     0.900000E-01   1.00800           0
     12551 MEMB     95       POPC     C34      CTL2    -0.180000       12.0110           0
     12552 MEMB     95       POPC     H4X      HAL2     0.900000E-01   1.00800           0
     12553 MEMB     95       POPC     H4Y      HAL2     0.900000E-01   1.00800           0
     12554 MEMB     95       POPC     C35      CTL2    -0.180000       12.0110           0
     12555 MEMB     95       POPC     H5X      HAL2     0.900000E-01   1.00800           0
     12556 MEMB     95       POPC     H5Y      HAL2     0.900000E-01   1.00800           0
     12557 MEMB     95       POPC     C36      CTL2    -0.180000       12.0110           0
     12558 MEMB     95       POPC     H6X      HAL2     0.900000E-01   1.00800           0
     12559 MEMB     95       POPC     H6Y      HAL2     0.900000E-01   1.00800           0
     12560 MEMB     95       POPC     C37      CTL2    -0.180000       12.0110           0
     12561 MEMB     95       POPC     H7X      HAL2     0.900000E-01   1.00800           0
     12562 MEMB     95       POPC     H7Y      HAL2     0.900000E-01   1.00800           0
     12563 MEMB     95       POPC     C38      CTL2    -0.180000       12.0110           0
     12564 MEMB     95       POPC     H8X      HAL2     0.900000E-01   1.00800           0
     12565 MEMB     95       POPC     H8Y      HAL2     0.900000E-01   1.00800           0
     12566 MEMB     95       POPC     C39      CTL2    -0.180000       12.0110           0
     12567 MEMB     95       POPC     H9X      HAL2     0.900000E-01   1.00800           0
     12568 MEMB     95       POPC     H9Y      HAL2     0.900000E-01   1.00800           0
     12569 MEMB     95       POPC     C310     CTL2    -0.180000       12.0110           0
     12570 MEMB     95       POPC     H10X     HAL2     0.900000E-01   1.00800           0
     12571 MEMB     95       POPC     H10Y     HAL2     0.900000E-01   1.00800           0
     12572 MEMB     95       POPC     C311     CTL2    -0.180000       12.0110           0
     12573 MEMB     95       POPC     H11X     HAL2     0.900000E-01   1.00800           0
     12574 MEMB     95       POPC     H11Y     HAL2     0.900000E-01   1.00800           0
     12575 MEMB     95       POPC     C312     CTL2    -0.180000       12.0110           0
     12576 MEMB     95       POPC     H12X     HAL2     0.900000E-01   1.00800           0
     12577 MEMB     95       POPC     H12Y     HAL2     0.900000E-01   1.00800           0
     12578 MEMB     95       POPC     C313     CTL2    -0.180000       12.0110           0
     12579 MEMB     95       POPC     H13X     HAL2     0.900000E-01   1.00800           0
     12580 MEMB     95       POPC     H13Y     HAL2     0.900000E-01   1.00800           0
     12581 MEMB     95       POPC     C314     CTL2    -0.180000       12.0110           0
     12582 MEMB     95       POPC     H14X     HAL2     0.900000E-01   1.00800           0
     12583 MEMB     95       POPC     H14Y     HAL2     0.900000E-01   1.00800           0
     12584 MEMB     95       POPC     C315     CTL2    -0.180000       12.0110           0
     12585 MEMB     95       POPC     H15X     HAL2     0.900000E-01   1.00800           0
     12586 MEMB     95       POPC     H15Y     HAL2     0.900000E-01   1.00800           0
     12587 MEMB     95       POPC     C316     CTL3    -0.270000       12.0110           0
     12588 MEMB     95       POPC     H16X     HAL3     0.900000E-01   1.00800           0
     12589 MEMB     95       POPC     H16Y     HAL3     0.900000E-01   1.00800           0
     12590 MEMB     95       POPC     H16Z     HAL3     0.900000E-01   1.00800           0
     12591 MEMB     96       POPC     N        NTL     -0.600000       14.0070           0
     12592 MEMB     96       POPC     C12      CTL2    -0.100000       12.0110           0
     12593 MEMB     96       POPC     H12A     HL       0.250000       1.00800           0
     12594 MEMB     96       POPC     H12B     HL       0.250000       1.00800           0
     12595 MEMB     96       POPC     C13      CTL5    -0.350000       12.0110           0
     12596 MEMB     96       POPC     H13A     HL       0.250000       1.00800           0
     12597 MEMB     96       POPC     H13B     HL       0.250000       1.00800           0
     12598 MEMB     96       POPC     H13C     HL       0.250000       1.00800           0
     12599 MEMB     96       POPC     C14      CTL5    -0.350000       12.0110           0
     12600 MEMB     96       POPC     H14A     HL       0.250000       1.00800           0
     12601 MEMB     96       POPC     H14B     HL       0.250000       1.00800           0
     12602 MEMB     96       POPC     H14C     HL       0.250000       1.00800           0
     12603 MEMB     96       POPC     C15      CTL5    -0.350000       12.0110           0
     12604 MEMB     96       POPC     H15A     HL       0.250000       1.00800           0
     12605 MEMB     96       POPC     H15B     HL       0.250000       1.00800           0
     12606 MEMB     96       POPC     H15C     HL       0.250000       1.00800           0
     12607 MEMB     96       POPC     C11      CTL2    -0.800000E-01   12.0110           0
     12608 MEMB     96       POPC     H11A     HAL2     0.900000E-01   1.00800           0
     12609 MEMB     96       POPC     H11B     HAL2     0.900000E-01   1.00800           0
     12610 MEMB     96       POPC     P        PL        1.50000       30.9740           0
     12611 MEMB     96       POPC     O13      O2L     -0.780000       15.9994           0
     12612 MEMB     96       POPC     O14      O2L     -0.780000       15.9994           0
     12613 MEMB     96       POPC     O12      OSLP    -0.570000       15.9994           0
     12614 MEMB     96       POPC     O11      OSLP    -0.570000       15.9994           0
     12615 MEMB     96       POPC     C1       CTL2    -0.800000E-01   12.0110           0
     12616 MEMB     96       POPC     HA       HAL2     0.900000E-01   1.00800           0
     12617 MEMB     96       POPC     HB       HAL2     0.900000E-01   1.00800           0
     12618 MEMB     96       POPC     C2       CTL1     0.170000       12.0110           0
     12619 MEMB     96       POPC     HS       HAL1     0.900000E-01   1.00800           0
     12620 MEMB     96       POPC     O21      OSL     -0.490000       15.9994           0
     12621 MEMB     96       POPC     C21      CL       0.900000       12.0110           0
     12622 MEMB     96       POPC     O22      OBL     -0.630000       15.9994           0
     12623 MEMB     96       POPC     C22      CTL2    -0.220000       12.0110           0
     12624 MEMB     96       POPC     H2R      HAL2     0.900000E-01   1.00800           0
     12625 MEMB     96       POPC     H2S      HAL2     0.900000E-01   1.00800           0
     12626 MEMB     96       POPC     C3       CTL2     0.800000E-01   12.0110           0
     12627 MEMB     96       POPC     HX       HAL2     0.900000E-01   1.00800           0
     12628 MEMB     96       POPC     HY       HAL2     0.900000E-01   1.00800           0
     12629 MEMB     96       POPC     O31      OSL     -0.490000       15.9994           0
     12630 MEMB     96       POPC     C31      CL       0.900000       12.0110           0
     12631 MEMB     96       POPC     O32      OBL     -0.630000       15.9994           0
     12632 MEMB     96       POPC     C32      CTL2    -0.220000       12.0110           0
     12633 MEMB     96       POPC     H2X      HAL2     0.900000E-01   1.00800           0
     12634 MEMB     96       POPC     H2Y      HAL2     0.900000E-01   1.00800           0
     12635 MEMB     96       POPC     C23      CTL2    -0.180000       12.0110           0
     12636 MEMB     96       POPC     H3R      HAL2     0.900000E-01   1.00800           0
     12637 MEMB     96       POPC     H3S      HAL2     0.900000E-01   1.00800           0
     12638 MEMB     96       POPC     C24      CTL2    -0.180000       12.0110           0
     12639 MEMB     96       POPC     H4R      HAL2     0.900000E-01   1.00800           0
     12640 MEMB     96       POPC     H4S      HAL2     0.900000E-01   1.00800           0
     12641 MEMB     96       POPC     C25      CTL2    -0.180000       12.0110           0
     12642 MEMB     96       POPC     H5R      HAL2     0.900000E-01   1.00800           0
     12643 MEMB     96       POPC     H5S      HAL2     0.900000E-01   1.00800           0
     12644 MEMB     96       POPC     C26      CTL2    -0.180000       12.0110           0
     12645 MEMB     96       POPC     H6R      HAL2     0.900000E-01   1.00800           0
     12646 MEMB     96       POPC     H6S      HAL2     0.900000E-01   1.00800           0
     12647 MEMB     96       POPC     C27      CTL2    -0.180000       12.0110           0
     12648 MEMB     96       POPC     H7R      HAL2     0.900000E-01   1.00800           0
     12649 MEMB     96       POPC     H7S      HAL2     0.900000E-01   1.00800           0
     12650 MEMB     96       POPC     C28      CTL2    -0.180000       12.0110           0
     12651 MEMB     96       POPC     H8R      HAL2     0.900000E-01   1.00800           0
     12652 MEMB     96       POPC     H8S      HAL2     0.900000E-01   1.00800           0
     12653 MEMB     96       POPC     C29      CEL1    -0.150000       12.0110           0
     12654 MEMB     96       POPC     H91      HEL1     0.150000       1.00800           0
     12655 MEMB     96       POPC     C210     CEL1    -0.150000       12.0110           0
     12656 MEMB     96       POPC     H101     HEL1     0.150000       1.00800           0
     12657 MEMB     96       POPC     C211     CTL2    -0.180000       12.0110           0
     12658 MEMB     96       POPC     H11R     HAL2     0.900000E-01   1.00800           0
     12659 MEMB     96       POPC     H11S     HAL2     0.900000E-01   1.00800           0
     12660 MEMB     96       POPC     C212     CTL2    -0.180000       12.0110           0
     12661 MEMB     96       POPC     H12R     HAL2     0.900000E-01   1.00800           0
     12662 MEMB     96       POPC     H12S     HAL2     0.900000E-01   1.00800           0
     12663 MEMB     96       POPC     C213     CTL2    -0.180000       12.0110           0
     12664 MEMB     96       POPC     H13R     HAL2     0.900000E-01   1.00800           0
     12665 MEMB     96       POPC     H13S     HAL2     0.900000E-01   1.00800           0
     12666 MEMB     96       POPC     C214     CTL2    -0.180000       12.0110           0
     12667 MEMB     96       POPC     H14R     HAL2     0.900000E-01   1.00800           0
     12668 MEMB     96       POPC     H14S     HAL2     0.900000E-01   1.00800           0
     12669 MEMB     96       POPC     C215     CTL2    -0.180000       12.0110           0
     12670 MEMB     96       POPC     H15R     HAL2     0.900000E-01   1.00800           0
     12671 MEMB     96       POPC     H15S     HAL2     0.900000E-01   1.00800           0
     12672 MEMB     96       POPC     C216     CTL2    -0.180000       12.0110           0
     12673 MEMB     96       POPC     H16R     HAL2     0.900000E-01   1.00800           0
     12674 MEMB     96       POPC     H16S     HAL2     0.900000E-01   1.00800           0
     12675 MEMB     96       POPC     C217     CTL2    -0.180000       12.0110           0
     12676 MEMB     96       POPC     H17R     HAL2     0.900000E-01   1.00800           0
     12677 MEMB     96       POPC     H17S     HAL2     0.900000E-01   1.00800           0
     12678 MEMB     96       POPC     C218     CTL3    -0.270000       12.0110           0
     12679 MEMB     96       POPC     H18R     HAL3     0.900000E-01   1.00800           0
     12680 MEMB     96       POPC     H18S     HAL3     0.900000E-01   1.00800           0
     12681 MEMB     96       POPC     H18T     HAL3     0.900000E-01   1.00800           0
     12682 MEMB     96       POPC     C33      CTL2    -0.180000       12.0110           0
     12683 MEMB     96       POPC     H3X      HAL2     0.900000E-01   1.00800           0
     12684 MEMB     96       POPC     H3Y      HAL2     0.900000E-01   1.00800           0
     12685 MEMB     96       POPC     C34      CTL2    -0.180000       12.0110           0
     12686 MEMB     96       POPC     H4X      HAL2     0.900000E-01   1.00800           0
     12687 MEMB     96       POPC     H4Y      HAL2     0.900000E-01   1.00800           0
     12688 MEMB     96       POPC     C35      CTL2    -0.180000       12.0110           0
     12689 MEMB     96       POPC     H5X      HAL2     0.900000E-01   1.00800           0
     12690 MEMB     96       POPC     H5Y      HAL2     0.900000E-01   1.00800           0
     12691 MEMB     96       POPC     C36      CTL2    -0.180000       12.0110           0
     12692 MEMB     96       POPC     H6X      HAL2     0.900000E-01   1.00800           0
     12693 MEMB     96       POPC     H6Y      HAL2     0.900000E-01   1.00800           0
     12694 MEMB     96       POPC     C37      CTL2    -0.180000       12.0110           0
     12695 MEMB     96       POPC     H7X      HAL2     0.900000E-01   1.00800           0
     12696 MEMB     96       POPC     H7Y      HAL2     0.900000E-01   1.00800           0
     12697 MEMB     96       POPC     C38      CTL2    -0.180000       12.0110           0
     12698 MEMB     96       POPC     H8X      HAL2     0.900000E-01   1.00800           0
     12699 MEMB     96       POPC     H8Y      HAL2     0.900000E-01   1.00800           0
     12700 MEMB     96       POPC     C39      CTL2    -0.180000       12.0110           0
     12701 MEMB     96       POPC     H9X      HAL2     0.900000E-01   1.00800           0
     12702 MEMB     96       POPC     H9Y      HAL2     0.900000E-01   1.00800           0
     12703 MEMB     96       POPC     C310     CTL2    -0.180000       12.0110           0
     12704 MEMB     96       POPC     H10X     HAL2     0.900000E-01   1.00800           0
     12705 MEMB     96       POPC     H10Y     HAL2     0.900000E-01   1.00800           0
     12706 MEMB     96       POPC     C311     CTL2    -0.180000       12.0110           0
     12707 MEMB     96       POPC     H11X     HAL2     0.900000E-01   1.00800           0
     12708 MEMB     96       POPC     H11Y     HAL2     0.900000E-01   1.00800           0
     12709 MEMB     96       POPC     C312     CTL2    -0.180000       12.0110           0
     12710 MEMB     96       POPC     H12X     HAL2     0.900000E-01   1.00800           0
     12711 MEMB     96       POPC     H12Y     HAL2     0.900000E-01   1.00800           0
     12712 MEMB     96       POPC     C313     CTL2    -0.180000       12.0110           0
     12713 MEMB     96       POPC     H13X     HAL2     0.900000E-01   1.00800           0
     12714 MEMB     96       POPC     H13Y     HAL2     0.900000E-01   1.00800           0
     12715 MEMB     96       POPC     C314     CTL2    -0.180000       12.0110           0
     12716 MEMB     96       POPC     H14X     HAL2     0.900000E-01   1.00800           0
     12717 MEMB     96       POPC     H14Y     HAL2     0.900000E-01   1.00800           0
     12718 MEMB     96       POPC     C315     CTL2    -0.180000       12.0110           0
     12719 MEMB     96       POPC     H15X     HAL2     0.900000E-01   1.00800           0
     12720 MEMB     96       POPC     H15Y     HAL2     0.900000E-01   1.00800           0
     12721 MEMB     96       POPC     C316     CTL3    -0.270000       12.0110           0
     12722 MEMB     96       POPC     H16X     HAL3     0.900000E-01   1.00800           0
     12723 MEMB     96       POPC     H16Y     HAL3     0.900000E-01   1.00800           0
     12724 MEMB     96       POPC     H16Z     HAL3     0.900000E-01   1.00800           0
     12725 MEMB     97       POPC     N        NTL     -0.600000       14.0070           0
     12726 MEMB     97       POPC     C12      CTL2    -0.100000       12.0110           0
     12727 MEMB     97       POPC     H12A     HL       0.250000       1.00800           0
     12728 MEMB     97       POPC     H12B     HL       0.250000       1.00800           0
     12729 MEMB     97       POPC     C13      CTL5    -0.350000       12.0110           0
     12730 MEMB     97       POPC     H13A     HL       0.250000       1.00800           0
     12731 MEMB     97       POPC     H13B     HL       0.250000       1.00800           0
     12732 MEMB     97       POPC     H13C     HL       0.250000       1.00800           0
     12733 MEMB     97       POPC     C14      CTL5    -0.350000       12.0110           0
     12734 MEMB     97       POPC     H14A     HL       0.250000       1.00800           0
     12735 MEMB     97       POPC     H14B     HL       0.250000       1.00800           0
     12736 MEMB     97       POPC     H14C     HL       0.250000       1.00800           0
     12737 MEMB     97       POPC     C15      CTL5    -0.350000       12.0110           0
     12738 MEMB     97       POPC     H15A     HL       0.250000       1.00800           0
     12739 MEMB     97       POPC     H15B     HL       0.250000       1.00800           0
     12740 MEMB     97       POPC     H15C     HL       0.250000       1.00800           0
     12741 MEMB     97       POPC     C11      CTL2    -0.800000E-01   12.0110           0
     12742 MEMB     97       POPC     H11A     HAL2     0.900000E-01   1.00800           0
     12743 MEMB     97       POPC     H11B     HAL2     0.900000E-01   1.00800           0
     12744 MEMB     97       POPC     P        PL        1.50000       30.9740           0
     12745 MEMB     97       POPC     O13      O2L     -0.780000       15.9994           0
     12746 MEMB     97       POPC     O14      O2L     -0.780000       15.9994           0
     12747 MEMB     97       POPC     O12      OSLP    -0.570000       15.9994           0
     12748 MEMB     97       POPC     O11      OSLP    -0.570000       15.9994           0
     12749 MEMB     97       POPC     C1       CTL2    -0.800000E-01   12.0110           0
     12750 MEMB     97       POPC     HA       HAL2     0.900000E-01   1.00800           0
     12751 MEMB     97       POPC     HB       HAL2     0.900000E-01   1.00800           0
     12752 MEMB     97       POPC     C2       CTL1     0.170000       12.0110           0
     12753 MEMB     97       POPC     HS       HAL1     0.900000E-01   1.00800           0
     12754 MEMB     97       POPC     O21      OSL     -0.490000       15.9994           0
     12755 MEMB     97       POPC     C21      CL       0.900000       12.0110           0
     12756 MEMB     97       POPC     O22      OBL     -0.630000       15.9994           0
     12757 MEMB     97       POPC     C22      CTL2    -0.220000       12.0110           0
     12758 MEMB     97       POPC     H2R      HAL2     0.900000E-01   1.00800           0
     12759 MEMB     97       POPC     H2S      HAL2     0.900000E-01   1.00800           0
     12760 MEMB     97       POPC     C3       CTL2     0.800000E-01   12.0110           0
     12761 MEMB     97       POPC     HX       HAL2     0.900000E-01   1.00800           0
     12762 MEMB     97       POPC     HY       HAL2     0.900000E-01   1.00800           0
     12763 MEMB     97       POPC     O31      OSL     -0.490000       15.9994           0
     12764 MEMB     97       POPC     C31      CL       0.900000       12.0110           0
     12765 MEMB     97       POPC     O32      OBL     -0.630000       15.9994           0
     12766 MEMB     97       POPC     C32      CTL2    -0.220000       12.0110           0
     12767 MEMB     97       POPC     H2X      HAL2     0.900000E-01   1.00800           0
     12768 MEMB     97       POPC     H2Y      HAL2     0.900000E-01   1.00800           0
     12769 MEMB     97       POPC     C23      CTL2    -0.180000       12.0110           0
     12770 MEMB     97       POPC     H3R      HAL2     0.900000E-01   1.00800           0
     12771 MEMB     97       POPC     H3S      HAL2     0.900000E-01   1.00800           0
     12772 MEMB     97       POPC     C24      CTL2    -0.180000       12.0110           0
     12773 MEMB     97       POPC     H4R      HAL2     0.900000E-01   1.00800           0
     12774 MEMB     97       POPC     H4S      HAL2     0.900000E-01   1.00800           0
     12775 MEMB     97       POPC     C25      CTL2    -0.180000       12.0110           0
     12776 MEMB     97       POPC     H5R      HAL2     0.900000E-01   1.00800           0
     12777 MEMB     97       POPC     H5S      HAL2     0.900000E-01   1.00800           0
     12778 MEMB     97       POPC     C26      CTL2    -0.180000       12.0110           0
     12779 MEMB     97       POPC     H6R      HAL2     0.900000E-01   1.00800           0
     12780 MEMB     97       POPC     H6S      HAL2     0.900000E-01   1.00800           0
     12781 MEMB     97       POPC     C27      CTL2    -0.180000       12.0110           0
     12782 MEMB     97       POPC     H7R      HAL2     0.900000E-01   1.00800           0
     12783 MEMB     97       POPC     H7S      HAL2     0.900000E-01   1.00800           0
     12784 MEMB     97       POPC     C28      CTL2    -0.180000       12.0110           0
     12785 MEMB     97       POPC     H8R      HAL2     0.900000E-01   1.00800           0
     12786 MEMB     97       POPC     H8S      HAL2     0.900000E-01   1.00800           0
     12787 MEMB     97       POPC     C29      CEL1    -0.150000       12.0110           0
     12788 MEMB     97       POPC     H91      HEL1     0.150000       1.00800           0
     12789 MEMB     97       POPC     C210     CEL1    -0.150000       12.0110           0
     12790 MEMB     97       POPC     H101     HEL1     0.150000       1.00800           0
     12791 MEMB     97       POPC     C211     CTL2    -0.180000       12.0110           0
     12792 MEMB     97       POPC     H11R     HAL2     0.900000E-01   1.00800           0
     12793 MEMB     97       POPC     H11S     HAL2     0.900000E-01   1.00800           0
     12794 MEMB     97       POPC     C212     CTL2    -0.180000       12.0110           0
     12795 MEMB     97       POPC     H12R     HAL2     0.900000E-01   1.00800           0
     12796 MEMB     97       POPC     H12S     HAL2     0.900000E-01   1.00800           0
     12797 MEMB     97       POPC     C213     CTL2    -0.180000       12.0110           0
     12798 MEMB     97       POPC     H13R     HAL2     0.900000E-01   1.00800           0
     12799 MEMB     97       POPC     H13S     HAL2     0.900000E-01   1.00800           0
     12800 MEMB     97       POPC     C214     CTL2    -0.180000       12.0110           0
     12801 MEMB     97       POPC     H14R     HAL2     0.900000E-01   1.00800           0
     12802 MEMB     97       POPC     H14S     HAL2     0.900000E-01   1.00800           0
     12803 MEMB     97       POPC     C215     CTL2    -0.180000       12.0110           0
     12804 MEMB     97       POPC     H15R     HAL2     0.900000E-01   1.00800           0
     12805 MEMB     97       POPC     H15S     HAL2     0.900000E-01   1.00800           0
     12806 MEMB     97       POPC     C216     CTL2    -0.180000       12.0110           0
     12807 MEMB     97       POPC     H16R     HAL2     0.900000E-01   1.00800           0
     12808 MEMB     97       POPC     H16S     HAL2     0.900000E-01   1.00800           0
     12809 MEMB     97       POPC     C217     CTL2    -0.180000       12.0110           0
     12810 MEMB     97       POPC     H17R     HAL2     0.900000E-01   1.00800           0
     12811 MEMB     97       POPC     H17S     HAL2     0.900000E-01   1.00800           0
     12812 MEMB     97       POPC     C218     CTL3    -0.270000       12.0110           0
     12813 MEMB     97       POPC     H18R     HAL3     0.900000E-01   1.00800           0
     12814 MEMB     97       POPC     H18S     HAL3     0.900000E-01   1.00800           0
     12815 MEMB     97       POPC     H18T     HAL3     0.900000E-01   1.00800           0
     12816 MEMB     97       POPC     C33      CTL2    -0.180000       12.0110           0
     12817 MEMB     97       POPC     H3X      HAL2     0.900000E-01   1.00800           0
     12818 MEMB     97       POPC     H3Y      HAL2     0.900000E-01   1.00800           0
     12819 MEMB     97       POPC     C34      CTL2    -0.180000       12.0110           0
     12820 MEMB     97       POPC     H4X      HAL2     0.900000E-01   1.00800           0
     12821 MEMB     97       POPC     H4Y      HAL2     0.900000E-01   1.00800           0
     12822 MEMB     97       POPC     C35      CTL2    -0.180000       12.0110           0
     12823 MEMB     97       POPC     H5X      HAL2     0.900000E-01   1.00800           0
     12824 MEMB     97       POPC     H5Y      HAL2     0.900000E-01   1.00800           0
     12825 MEMB     97       POPC     C36      CTL2    -0.180000       12.0110           0
     12826 MEMB     97       POPC     H6X      HAL2     0.900000E-01   1.00800           0
     12827 MEMB     97       POPC     H6Y      HAL2     0.900000E-01   1.00800           0
     12828 MEMB     97       POPC     C37      CTL2    -0.180000       12.0110           0
     12829 MEMB     97       POPC     H7X      HAL2     0.900000E-01   1.00800           0
     12830 MEMB     97       POPC     H7Y      HAL2     0.900000E-01   1.00800           0
     12831 MEMB     97       POPC     C38      CTL2    -0.180000       12.0110           0
     12832 MEMB     97       POPC     H8X      HAL2     0.900000E-01   1.00800           0
     12833 MEMB     97       POPC     H8Y      HAL2     0.900000E-01   1.00800           0
     12834 MEMB     97       POPC     C39      CTL2    -0.180000       12.0110           0
     12835 MEMB     97       POPC     H9X      HAL2     0.900000E-01   1.00800           0
     12836 MEMB     97       POPC     H9Y      HAL2     0.900000E-01   1.00800           0
     12837 MEMB     97       POPC     C310     CTL2    -0.180000       12.0110           0
     12838 MEMB     97       POPC     H10X     HAL2     0.900000E-01   1.00800           0
     12839 MEMB     97       POPC     H10Y     HAL2     0.900000E-01   1.00800           0
     12840 MEMB     97       POPC     C311     CTL2    -0.180000       12.0110           0
     12841 MEMB     97       POPC     H11X     HAL2     0.900000E-01   1.00800           0
     12842 MEMB     97       POPC     H11Y     HAL2     0.900000E-01   1.00800           0
     12843 MEMB     97       POPC     C312     CTL2    -0.180000       12.0110           0
     12844 MEMB     97       POPC     H12X     HAL2     0.900000E-01   1.00800           0
     12845 MEMB     97       POPC     H12Y     HAL2     0.900000E-01   1.00800           0
     12846 MEMB     97       POPC     C313     CTL2    -0.180000       12.0110           0
     12847 MEMB     97       POPC     H13X     HAL2     0.900000E-01   1.00800           0
     12848 MEMB     97       POPC     H13Y     HAL2     0.900000E-01   1.00800           0
     12849 MEMB     97       POPC     C314     CTL2    -0.180000       12.0110           0
     12850 MEMB     97       POPC     H14X     HAL2     0.900000E-01   1.00800           0
     12851 MEMB     97       POPC     H14Y     HAL2     0.900000E-01   1.00800           0
     12852 MEMB     97       POPC     C315     CTL2    -0.180000       12.0110           0
     12853 MEMB     97       POPC     H15X     HAL2     0.900000E-01   1.00800           0
     12854 MEMB     97       POPC     H15Y     HAL2     0.900000E-01   1.00800           0
     12855 MEMB     97       POPC     C316     CTL3    -0.270000       12.0110           0
     12856 MEMB     97       POPC     H16X     HAL3     0.900000E-01   1.00800           0
     12857 MEMB     97       POPC     H16Y     HAL3     0.900000E-01   1.00800           0
     12858 MEMB     97       POPC     H16Z     HAL3     0.900000E-01   1.00800           0
     12859 MEMB     98       POPC     N        NTL     -0.600000       14.0070           0
     12860 MEMB     98       POPC     C12      CTL2    -0.100000       12.0110           0
     12861 MEMB     98       POPC     H12A     HL       0.250000       1.00800           0
     12862 MEMB     98       POPC     H12B     HL       0.250000       1.00800           0
     12863 MEMB     98       POPC     C13      CTL5    -0.350000       12.0110           0
     12864 MEMB     98       POPC     H13A     HL       0.250000       1.00800           0
     12865 MEMB     98       POPC     H13B     HL       0.250000       1.00800           0
     12866 MEMB     98       POPC     H13C     HL       0.250000       1.00800           0
     12867 MEMB     98       POPC     C14      CTL5    -0.350000       12.0110           0
     12868 MEMB     98       POPC     H14A     HL       0.250000       1.00800           0
     12869 MEMB     98       POPC     H14B     HL       0.250000       1.00800           0
     12870 MEMB     98       POPC     H14C     HL       0.250000       1.00800           0
     12871 MEMB     98       POPC     C15      CTL5    -0.350000       12.0110           0
     12872 MEMB     98       POPC     H15A     HL       0.250000       1.00800           0
     12873 MEMB     98       POPC     H15B     HL       0.250000       1.00800           0
     12874 MEMB     98       POPC     H15C     HL       0.250000       1.00800           0
     12875 MEMB     98       POPC     C11      CTL2    -0.800000E-01   12.0110           0
     12876 MEMB     98       POPC     H11A     HAL2     0.900000E-01   1.00800           0
     12877 MEMB     98       POPC     H11B     HAL2     0.900000E-01   1.00800           0
     12878 MEMB     98       POPC     P        PL        1.50000       30.9740           0
     12879 MEMB     98       POPC     O13      O2L     -0.780000       15.9994           0
     12880 MEMB     98       POPC     O14      O2L     -0.780000       15.9994           0
     12881 MEMB     98       POPC     O12      OSLP    -0.570000       15.9994           0
     12882 MEMB     98       POPC     O11      OSLP    -0.570000       15.9994           0
     12883 MEMB     98       POPC     C1       CTL2    -0.800000E-01   12.0110           0
     12884 MEMB     98       POPC     HA       HAL2     0.900000E-01   1.00800           0
     12885 MEMB     98       POPC     HB       HAL2     0.900000E-01   1.00800           0
     12886 MEMB     98       POPC     C2       CTL1     0.170000       12.0110           0
     12887 MEMB     98       POPC     HS       HAL1     0.900000E-01   1.00800           0
     12888 MEMB     98       POPC     O21      OSL     -0.490000       15.9994           0
     12889 MEMB     98       POPC     C21      CL       0.900000       12.0110           0
     12890 MEMB     98       POPC     O22      OBL     -0.630000       15.9994           0
     12891 MEMB     98       POPC     C22      CTL2    -0.220000       12.0110           0
     12892 MEMB     98       POPC     H2R      HAL2     0.900000E-01   1.00800           0
     12893 MEMB     98       POPC     H2S      HAL2     0.900000E-01   1.00800           0
     12894 MEMB     98       POPC     C3       CTL2     0.800000E-01   12.0110           0
     12895 MEMB     98       POPC     HX       HAL2     0.900000E-01   1.00800           0
     12896 MEMB     98       POPC     HY       HAL2     0.900000E-01   1.00800           0
     12897 MEMB     98       POPC     O31      OSL     -0.490000       15.9994           0
     12898 MEMB     98       POPC     C31      CL       0.900000       12.0110           0
     12899 MEMB     98       POPC     O32      OBL     -0.630000       15.9994           0
     12900 MEMB     98       POPC     C32      CTL2    -0.220000       12.0110           0
     12901 MEMB     98       POPC     H2X      HAL2     0.900000E-01   1.00800           0
     12902 MEMB     98       POPC     H2Y      HAL2     0.900000E-01   1.00800           0
     12903 MEMB     98       POPC     C23      CTL2    -0.180000       12.0110           0
     12904 MEMB     98       POPC     H3R      HAL2     0.900000E-01   1.00800           0
     12905 MEMB     98       POPC     H3S      HAL2     0.900000E-01   1.00800           0
     12906 MEMB     98       POPC     C24      CTL2    -0.180000       12.0110           0
     12907 MEMB     98       POPC     H4R      HAL2     0.900000E-01   1.00800           0
     12908 MEMB     98       POPC     H4S      HAL2     0.900000E-01   1.00800           0
     12909 MEMB     98       POPC     C25      CTL2    -0.180000       12.0110           0
     12910 MEMB     98       POPC     H5R      HAL2     0.900000E-01   1.00800           0
     12911 MEMB     98       POPC     H5S      HAL2     0.900000E-01   1.00800           0
     12912 MEMB     98       POPC     C26      CTL2    -0.180000       12.0110           0
     12913 MEMB     98       POPC     H6R      HAL2     0.900000E-01   1.00800           0
     12914 MEMB     98       POPC     H6S      HAL2     0.900000E-01   1.00800           0
     12915 MEMB     98       POPC     C27      CTL2    -0.180000       12.0110           0
     12916 MEMB     98       POPC     H7R      HAL2     0.900000E-01   1.00800           0
     12917 MEMB     98       POPC     H7S      HAL2     0.900000E-01   1.00800           0
     12918 MEMB     98       POPC     C28      CTL2    -0.180000       12.0110           0
     12919 MEMB     98       POPC     H8R      HAL2     0.900000E-01   1.00800           0
     12920 MEMB     98       POPC     H8S      HAL2     0.900000E-01   1.00800           0
     12921 MEMB     98       POPC     C29      CEL1    -0.150000       12.0110           0
     12922 MEMB     98       POPC     H91      HEL1     0.150000       1.00800           0
     12923 MEMB     98       POPC     C210     CEL1    -0.150000       12.0110           0
     12924 MEMB     98       POPC     H101     HEL1     0.150000       1.00800           0
     12925 MEMB     98       POPC     C211     CTL2    -0.180000       12.0110           0
     12926 MEMB     98       POPC     H11R     HAL2     0.900000E-01   1.00800           0
     12927 MEMB     98       POPC     H11S     HAL2     0.900000E-01   1.00800           0
     12928 MEMB     98       POPC     C212     CTL2    -0.180000       12.0110           0
     12929 MEMB     98       POPC     H12R     HAL2     0.900000E-01   1.00800           0
     12930 MEMB     98       POPC     H12S     HAL2     0.900000E-01   1.00800           0
     12931 MEMB     98       POPC     C213     CTL2    -0.180000       12.0110           0
     12932 MEMB     98       POPC     H13R     HAL2     0.900000E-01   1.00800           0
     12933 MEMB     98       POPC     H13S     HAL2     0.900000E-01   1.00800           0
     12934 MEMB     98       POPC     C214     CTL2    -0.180000       12.0110           0
     12935 MEMB     98       POPC     H14R     HAL2     0.900000E-01   1.00800           0
     12936 MEMB     98       POPC     H14S     HAL2     0.900000E-01   1.00800           0
     12937 MEMB     98       POPC     C215     CTL2    -0.180000       12.0110           0
     12938 MEMB     98       POPC     H15R     HAL2     0.900000E-01   1.00800           0
     12939 MEMB     98       POPC     H15S     HAL2     0.900000E-01   1.00800           0
     12940 MEMB     98       POPC     C216     CTL2    -0.180000       12.0110           0
     12941 MEMB     98       POPC     H16R     HAL2     0.900000E-01   1.00800           0
     12942 MEMB     98       POPC     H16S     HAL2     0.900000E-01   1.00800           0
     12943 MEMB     98       POPC     C217     CTL2    -0.180000       12.0110           0
     12944 MEMB     98       POPC     H17R     HAL2     0.900000E-01   1.00800           0
     12945 MEMB     98       POPC     H17S     HAL2     0.900000E-01   1.00800           0
     12946 MEMB     98       POPC     C218     CTL3    -0.270000       12.0110           0
     12947 MEMB     98       POPC     H18R     HAL3     0.900000E-01   1.00800           0
     12948 MEMB     98       POPC     H18S     HAL3     0.900000E-01   1.00800           0
     12949 MEMB     98       POPC     H18T     HAL3     0.900000E-01   1.00800           0
     12950 MEMB     98       POPC     C33      CTL2    -0.180000       12.0110           0
     12951 MEMB     98       POPC     H3X      HAL2     0.900000E-01   1.00800           0
     12952 MEMB     98       POPC     H3Y      HAL2     0.900000E-01   1.00800           0
     12953 MEMB     98       POPC     C34      CTL2    -0.180000       12.0110           0
     12954 MEMB     98       POPC     H4X      HAL2     0.900000E-01   1.00800           0
     12955 MEMB     98       POPC     H4Y      HAL2     0.900000E-01   1.00800           0
     12956 MEMB     98       POPC     C35      CTL2    -0.180000       12.0110           0
     12957 MEMB     98       POPC     H5X      HAL2     0.900000E-01   1.00800           0
     12958 MEMB     98       POPC     H5Y      HAL2     0.900000E-01   1.00800           0
     12959 MEMB     98       POPC     C36      CTL2    -0.180000       12.0110           0
     12960 MEMB     98       POPC     H6X      HAL2     0.900000E-01   1.00800           0
     12961 MEMB     98       POPC     H6Y      HAL2     0.900000E-01   1.00800           0
     12962 MEMB     98       POPC     C37      CTL2    -0.180000       12.0110           0
     12963 MEMB     98       POPC     H7X      HAL2     0.900000E-01   1.00800           0
     12964 MEMB     98       POPC     H7Y      HAL2     0.900000E-01   1.00800           0
     12965 MEMB     98       POPC     C38      CTL2    -0.180000       12.0110           0
     12966 MEMB     98       POPC     H8X      HAL2     0.900000E-01   1.00800           0
     12967 MEMB     98       POPC     H8Y      HAL2     0.900000E-01   1.00800           0
     12968 MEMB     98       POPC     C39      CTL2    -0.180000       12.0110           0
     12969 MEMB     98       POPC     H9X      HAL2     0.900000E-01   1.00800           0
     12970 MEMB     98       POPC     H9Y      HAL2     0.900000E-01   1.00800           0
     12971 MEMB     98       POPC     C310     CTL2    -0.180000       12.0110           0
     12972 MEMB     98       POPC     H10X     HAL2     0.900000E-01   1.00800           0
     12973 MEMB     98       POPC     H10Y     HAL2     0.900000E-01   1.00800           0
     12974 MEMB     98       POPC     C311     CTL2    -0.180000       12.0110           0
     12975 MEMB     98       POPC     H11X     HAL2     0.900000E-01   1.00800           0
     12976 MEMB     98       POPC     H11Y     HAL2     0.900000E-01   1.00800           0
     12977 MEMB     98       POPC     C312     CTL2    -0.180000       12.0110           0
     12978 MEMB     98       POPC     H12X     HAL2     0.900000E-01   1.00800           0
     12979 MEMB     98       POPC     H12Y     HAL2     0.900000E-01   1.00800           0
     12980 MEMB     98       POPC     C313     CTL2    -0.180000       12.0110           0
     12981 MEMB     98       POPC     H13X     HAL2     0.900000E-01   1.00800           0
     12982 MEMB     98       POPC     H13Y     HAL2     0.900000E-01   1.00800           0
     12983 MEMB     98       POPC     C314     CTL2    -0.180000       12.0110           0
     12984 MEMB     98       POPC     H14X     HAL2     0.900000E-01   1.00800           0
     12985 MEMB     98       POPC     H14Y     HAL2     0.900000E-01   1.00800           0
     12986 MEMB     98       POPC     C315     CTL2    -0.180000       12.0110           0
     12987 MEMB     98       POPC     H15X     HAL2     0.900000E-01   1.00800           0
     12988 MEMB     98       POPC     H15Y     HAL2     0.900000E-01   1.00800           0
     12989 MEMB     98       POPC     C316     CTL3    -0.270000       12.0110           0
     12990 MEMB     98       POPC     H16X     HAL3     0.900000E-01   1.00800           0
     12991 MEMB     98       POPC     H16Y     HAL3     0.900000E-01   1.00800           0
     12992 MEMB     98       POPC     H16Z     HAL3     0.900000E-01   1.00800           0
     12993 MEMB     99       POPC     N        NTL     -0.600000       14.0070           0
     12994 MEMB     99       POPC     C12      CTL2    -0.100000       12.0110           0
     12995 MEMB     99       POPC     H12A     HL       0.250000       1.00800           0
     12996 MEMB     99       POPC     H12B     HL       0.250000       1.00800           0
     12997 MEMB     99       POPC     C13      CTL5    -0.350000       12.0110           0
     12998 MEMB     99       POPC     H13A     HL       0.250000       1.00800           0
     12999 MEMB     99       POPC     H13B     HL       0.250000       1.00800           0
     13000 MEMB     99       POPC     H13C     HL       0.250000       1.00800           0
     13001 MEMB     99       POPC     C14      CTL5    -0.350000       12.0110           0
     13002 MEMB     99       POPC     H14A     HL       0.250000       1.00800           0
     13003 MEMB     99       POPC     H14B     HL       0.250000       1.00800           0
     13004 MEMB     99       POPC     H14C     HL       0.250000       1.00800           0
     13005 MEMB     99       POPC     C15      CTL5    -0.350000       12.0110           0
     13006 MEMB     99       POPC     H15A     HL       0.250000       1.00800           0
     13007 MEMB     99       POPC     H15B     HL       0.250000       1.00800           0
     13008 MEMB     99       POPC     H15C     HL       0.250000       1.00800           0
     13009 MEMB     99       POPC     C11      CTL2    -0.800000E-01   12.0110           0
     13010 MEMB     99       POPC     H11A     HAL2     0.900000E-01   1.00800           0
     13011 MEMB     99       POPC     H11B     HAL2     0.900000E-01   1.00800           0
     13012 MEMB     99       POPC     P        PL        1.50000       30.9740           0
     13013 MEMB     99       POPC     O13      O2L     -0.780000       15.9994           0
     13014 MEMB     99       POPC     O14      O2L     -0.780000       15.9994           0
     13015 MEMB     99       POPC     O12      OSLP    -0.570000       15.9994           0
     13016 MEMB     99       POPC     O11      OSLP    -0.570000       15.9994           0
     13017 MEMB     99       POPC     C1       CTL2    -0.800000E-01   12.0110           0
     13018 MEMB     99       POPC     HA       HAL2     0.900000E-01   1.00800           0
     13019 MEMB     99       POPC     HB       HAL2     0.900000E-01   1.00800           0
     13020 MEMB     99       POPC     C2       CTL1     0.170000       12.0110           0
     13021 MEMB     99       POPC     HS       HAL1     0.900000E-01   1.00800           0
     13022 MEMB     99       POPC     O21      OSL     -0.490000       15.9994           0
     13023 MEMB     99       POPC     C21      CL       0.900000       12.0110           0
     13024 MEMB     99       POPC     O22      OBL     -0.630000       15.9994           0
     13025 MEMB     99       POPC     C22      CTL2    -0.220000       12.0110           0
     13026 MEMB     99       POPC     H2R      HAL2     0.900000E-01   1.00800           0
     13027 MEMB     99       POPC     H2S      HAL2     0.900000E-01   1.00800           0
     13028 MEMB     99       POPC     C3       CTL2     0.800000E-01   12.0110           0
     13029 MEMB     99       POPC     HX       HAL2     0.900000E-01   1.00800           0
     13030 MEMB     99       POPC     HY       HAL2     0.900000E-01   1.00800           0
     13031 MEMB     99       POPC     O31      OSL     -0.490000       15.9994           0
     13032 MEMB     99       POPC     C31      CL       0.900000       12.0110           0
     13033 MEMB     99       POPC     O32      OBL     -0.630000       15.9994           0
     13034 MEMB     99       POPC     C32      CTL2    -0.220000       12.0110           0
     13035 MEMB     99       POPC     H2X      HAL2     0.900000E-01   1.00800           0
     13036 MEMB     99       POPC     H2Y      HAL2     0.900000E-01   1.00800           0
     13037 MEMB     99       POPC     C23      CTL2    -0.180000       12.0110           0
     13038 MEMB     99       POPC     H3R      HAL2     0.900000E-01   1.00800           0
     13039 MEMB     99       POPC     H3S      HAL2     0.900000E-01   1.00800           0
     13040 MEMB     99       POPC     C24      CTL2    -0.180000       12.0110           0
     13041 MEMB     99       POPC     H4R      HAL2     0.900000E-01   1.00800           0
     13042 MEMB     99       POPC     H4S      HAL2     0.900000E-01   1.00800           0
     13043 MEMB     99       POPC     C25      CTL2    -0.180000       12.0110           0
     13044 MEMB     99       POPC     H5R      HAL2     0.900000E-01   1.00800           0
     13045 MEMB     99       POPC     H5S      HAL2     0.900000E-01   1.00800           0
     13046 MEMB     99       POPC     C26      CTL2    -0.180000       12.0110           0
     13047 MEMB     99       POPC     H6R      HAL2     0.900000E-01   1.00800           0
     13048 MEMB     99       POPC     H6S      HAL2     0.900000E-01   1.00800           0
     13049 MEMB     99       POPC     C27      CTL2    -0.180000       12.0110           0
     13050 MEMB     99       POPC     H7R      HAL2     0.900000E-01   1.00800           0
     13051 MEMB     99       POPC     H7S      HAL2     0.900000E-01   1.00800           0
     13052 MEMB     99       POPC     C28      CTL2    -0.180000       12.0110           0
     13053 MEMB     99       POPC     H8R      HAL2     0.900000E-01   1.00800           0
     13054 MEMB     99       POPC     H8S      HAL2     0.900000E-01   1.00800           0
     13055 MEMB     99       POPC     C29      CEL1    -0.150000       12.0110           0
     13056 MEMB     99       POPC     H91      HEL1     0.150000       1.00800           0
     13057 MEMB     99       POPC     C210     CEL1    -0.150000       12.0110           0
     13058 MEMB     99       POPC     H101     HEL1     0.150000       1.00800           0
     13059 MEMB     99       POPC     C211     CTL2    -0.180000       12.0110           0
     13060 MEMB     99       POPC     H11R     HAL2     0.900000E-01   1.00800           0
     13061 MEMB     99       POPC     H11S     HAL2     0.900000E-01   1.00800           0
     13062 MEMB     99       POPC     C212     CTL2    -0.180000       12.0110           0
     13063 MEMB     99       POPC     H12R     HAL2     0.900000E-01   1.00800           0
     13064 MEMB     99       POPC     H12S     HAL2     0.900000E-01   1.00800           0
     13065 MEMB     99       POPC     C213     CTL2    -0.180000       12.0110           0
     13066 MEMB     99       POPC     H13R     HAL2     0.900000E-01   1.00800           0
     13067 MEMB     99       POPC     H13S     HAL2     0.900000E-01   1.00800           0
     13068 MEMB     99       POPC     C214     CTL2    -0.180000       12.0110           0
     13069 MEMB     99       POPC     H14R     HAL2     0.900000E-01   1.00800           0
     13070 MEMB     99       POPC     H14S     HAL2     0.900000E-01   1.00800           0
     13071 MEMB     99       POPC     C215     CTL2    -0.180000       12.0110           0
     13072 MEMB     99       POPC     H15R     HAL2     0.900000E-01   1.00800           0
     13073 MEMB     99       POPC     H15S     HAL2     0.900000E-01   1.00800           0
     13074 MEMB     99       POPC     C216     CTL2    -0.180000       12.0110           0
     13075 MEMB     99       POPC     H16R     HAL2     0.900000E-01   1.00800           0
     13076 MEMB     99       POPC     H16S     HAL2     0.900000E-01   1.00800           0
     13077 MEMB     99       POPC     C217     CTL2    -0.180000       12.0110           0
     13078 MEMB     99       POPC     H17R     HAL2     0.900000E-01   1.00800           0
     13079 MEMB     99       POPC     H17S     HAL2     0.900000E-01   1.00800           0
     13080 MEMB     99       POPC     C218     CTL3    -0.270000       12.0110           0
     13081 MEMB     99       POPC     H18R     HAL3     0.900000E-01   1.00800           0
     13082 MEMB     99       POPC     H18S     HAL3     0.900000E-01   1.00800           0
     13083 MEMB     99       POPC     H18T     HAL3     0.900000E-01   1.00800           0
     13084 MEMB     99       POPC     C33      CTL2    -0.180000       12.0110           0
     13085 MEMB     99       POPC     H3X      HAL2     0.900000E-01   1.00800           0
     13086 MEMB     99       POPC     H3Y      HAL2     0.900000E-01   1.00800           0
     13087 MEMB     99       POPC     C34      CTL2    -0.180000       12.0110           0
     13088 MEMB     99       POPC     H4X      HAL2     0.900000E-01   1.00800           0
     13089 MEMB     99       POPC     H4Y      HAL2     0.900000E-01   1.00800           0
     13090 MEMB     99       POPC     C35      CTL2    -0.180000       12.0110           0
     13091 MEMB     99       POPC     H5X      HAL2     0.900000E-01   1.00800           0
     13092 MEMB     99       POPC     H5Y      HAL2     0.900000E-01   1.00800           0
     13093 MEMB     99       POPC     C36      CTL2    -0.180000       12.0110           0
     13094 MEMB     99       POPC     H6X      HAL2     0.900000E-01   1.00800           0
     13095 MEMB     99       POPC     H6Y      HAL2     0.900000E-01   1.00800           0
     13096 MEMB     99       POPC     C37      CTL2    -0.180000       12.0110           0
     13097 MEMB     99       POPC     H7X      HAL2     0.900000E-01   1.00800           0
     13098 MEMB     99       POPC     H7Y      HAL2     0.900000E-01   1.00800           0
     13099 MEMB     99       POPC     C38      CTL2    -0.180000       12.0110           0
     13100 MEMB     99       POPC     H8X      HAL2     0.900000E-01   1.00800           0
     13101 MEMB     99       POPC     H8Y      HAL2     0.900000E-01   1.00800           0
     13102 MEMB     99       POPC     C39      CTL2    -0.180000       12.0110           0
     13103 MEMB     99       POPC     H9X      HAL2     0.900000E-01   1.00800           0
     13104 MEMB     99       POPC     H9Y      HAL2     0.900000E-01   1.00800           0
     13105 MEMB     99       POPC     C310     CTL2    -0.180000       12.0110           0
     13106 MEMB     99       POPC     H10X     HAL2     0.900000E-01   1.00800           0
     13107 MEMB     99       POPC     H10Y     HAL2     0.900000E-01   1.00800           0
     13108 MEMB     99       POPC     C311     CTL2    -0.180000       12.0110           0
     13109 MEMB     99       POPC     H11X     HAL2     0.900000E-01   1.00800           0
     13110 MEMB     99       POPC     H11Y     HAL2     0.900000E-01   1.00800           0
     13111 MEMB     99       POPC     C312     CTL2    -0.180000       12.0110           0
     13112 MEMB     99       POPC     H12X     HAL2     0.900000E-01   1.00800           0
     13113 MEMB     99       POPC     H12Y     HAL2     0.900000E-01   1.00800           0
     13114 MEMB     99       POPC     C313     CTL2    -0.180000       12.0110           0
     13115 MEMB     99       POPC     H13X     HAL2     0.900000E-01   1.00800           0
     13116 MEMB     99       POPC     H13Y     HAL2     0.900000E-01   1.00800           0
     13117 MEMB     99       POPC     C314     CTL2    -0.180000       12.0110           0
     13118 MEMB     99       POPC     H14X     HAL2     0.900000E-01   1.00800           0
     13119 MEMB     99       POPC     H14Y     HAL2     0.900000E-01   1.00800           0
     13120 MEMB     99       POPC     C315     CTL2    -0.180000       12.0110           0
     13121 MEMB     99       POPC     H15X     HAL2     0.900000E-01   1.00800           0
     13122 MEMB     99       POPC     H15Y     HAL2     0.900000E-01   1.00800           0
     13123 MEMB     99       POPC     C316     CTL3    -0.270000       12.0110           0
     13124 MEMB     99       POPC     H16X     HAL3     0.900000E-01   1.00800           0
     13125 MEMB     99       POPC     H16Y     HAL3     0.900000E-01   1.00800           0
     13126 MEMB     99       POPC     H16Z     HAL3     0.900000E-01   1.00800           0
     13127 MEMB     100      POPC     N        NTL     -0.600000       14.0070           0
     13128 MEMB     100      POPC     C12      CTL2    -0.100000       12.0110           0
     13129 MEMB     100      POPC     H12A     HL       0.250000       1.00800           0
     13130 MEMB     100      POPC     H12B     HL       0.250000       1.00800           0
     13131 MEMB     100      POPC     C13      CTL5    -0.350000       12.0110           0
     13132 MEMB     100      POPC     H13A     HL       0.250000       1.00800           0
     13133 MEMB     100      POPC     H13B     HL       0.250000       1.00800           0
     13134 MEMB     100      POPC     H13C     HL       0.250000       1.00800           0
     13135 MEMB     100      POPC     C14      CTL5    -0.350000       12.0110           0
     13136 MEMB     100      POPC     H14A     HL       0.250000       1.00800           0
     13137 MEMB     100      POPC     H14B     HL       0.250000       1.00800           0
     13138 MEMB     100      POPC     H14C     HL       0.250000       1.00800           0
     13139 MEMB     100      POPC     C15      CTL5    -0.350000       12.0110           0
     13140 MEMB     100      POPC     H15A     HL       0.250000       1.00800           0
     13141 MEMB     100      POPC     H15B     HL       0.250000       1.00800           0
     13142 MEMB     100      POPC     H15C     HL       0.250000       1.00800           0
     13143 MEMB     100      POPC     C11      CTL2    -0.800000E-01   12.0110           0
     13144 MEMB     100      POPC     H11A     HAL2     0.900000E-01   1.00800           0
     13145 MEMB     100      POPC     H11B     HAL2     0.900000E-01   1.00800           0
     13146 MEMB     100      POPC     P        PL        1.50000       30.9740           0
     13147 MEMB     100      POPC     O13      O2L     -0.780000       15.9994           0
     13148 MEMB     100      POPC     O14      O2L     -0.780000       15.9994           0
     13149 MEMB     100      POPC     O12      OSLP    -0.570000       15.9994           0
     13150 MEMB     100      POPC     O11      OSLP    -0.570000       15.9994           0
     13151 MEMB     100      POPC     C1       CTL2    -0.800000E-01   12.0110           0
     13152 MEMB     100      POPC     HA       HAL2     0.900000E-01   1.00800           0
     13153 MEMB     100      POPC     HB       HAL2     0.900000E-01   1.00800           0
     13154 MEMB     100      POPC     C2       CTL1     0.170000       12.0110           0
     13155 MEMB     100      POPC     HS       HAL1     0.900000E-01   1.00800           0
     13156 MEMB     100      POPC     O21      OSL     -0.490000       15.9994           0
     13157 MEMB     100      POPC     C21      CL       0.900000       12.0110           0
     13158 MEMB     100      POPC     O22      OBL     -0.630000       15.9994           0
     13159 MEMB     100      POPC     C22      CTL2    -0.220000       12.0110           0
     13160 MEMB     100      POPC     H2R      HAL2     0.900000E-01   1.00800           0
     13161 MEMB     100      POPC     H2S      HAL2     0.900000E-01   1.00800           0
     13162 MEMB     100      POPC     C3       CTL2     0.800000E-01   12.0110           0
     13163 MEMB     100      POPC     HX       HAL2     0.900000E-01   1.00800           0
     13164 MEMB     100      POPC     HY       HAL2     0.900000E-01   1.00800           0
     13165 MEMB     100      POPC     O31      OSL     -0.490000       15.9994           0
     13166 MEMB     100      POPC     C31      CL       0.900000       12.0110           0
     13167 MEMB     100      POPC     O32      OBL     -0.630000       15.9994           0
     13168 MEMB     100      POPC     C32      CTL2    -0.220000       12.0110           0
     13169 MEMB     100      POPC     H2X      HAL2     0.900000E-01   1.00800           0
     13170 MEMB     100      POPC     H2Y      HAL2     0.900000E-01   1.00800           0
     13171 MEMB     100      POPC     C23      CTL2    -0.180000       12.0110           0
     13172 MEMB     100      POPC     H3R      HAL2     0.900000E-01   1.00800           0
     13173 MEMB     100      POPC     H3S      HAL2     0.900000E-01   1.00800           0
     13174 MEMB     100      POPC     C24      CTL2    -0.180000       12.0110           0
     13175 MEMB     100      POPC     H4R      HAL2     0.900000E-01   1.00800           0
     13176 MEMB     100      POPC     H4S      HAL2     0.900000E-01   1.00800           0
     13177 MEMB     100      POPC     C25      CTL2    -0.180000       12.0110           0
     13178 MEMB     100      POPC     H5R      HAL2     0.900000E-01   1.00800           0
     13179 MEMB     100      POPC     H5S      HAL2     0.900000E-01   1.00800           0
     13180 MEMB     100      POPC     C26      CTL2    -0.180000       12.0110           0
     13181 MEMB     100      POPC     H6R      HAL2     0.900000E-01   1.00800           0
     13182 MEMB     100      POPC     H6S      HAL2     0.900000E-01   1.00800           0
     13183 MEMB     100      POPC     C27      CTL2    -0.180000       12.0110           0
     13184 MEMB     100      POPC     H7R      HAL2     0.900000E-01   1.00800           0
     13185 MEMB     100      POPC     H7S      HAL2     0.900000E-01   1.00800           0
     13186 MEMB     100      POPC     C28      CTL2    -0.180000       12.0110           0
     13187 MEMB     100      POPC     H8R      HAL2     0.900000E-01   1.00800           0
     13188 MEMB     100      POPC     H8S      HAL2     0.900000E-01   1.00800           0
     13189 MEMB     100      POPC     C29      CEL1    -0.150000       12.0110           0
     13190 MEMB     100      POPC     H91      HEL1     0.150000       1.00800           0
     13191 MEMB     100      POPC     C210     CEL1    -0.150000       12.0110           0
     13192 MEMB     100      POPC     H101     HEL1     0.150000       1.00800           0
     13193 MEMB     100      POPC     C211     CTL2    -0.180000       12.0110           0
     13194 MEMB     100      POPC     H11R     HAL2     0.900000E-01   1.00800           0
     13195 MEMB     100      POPC     H11S     HAL2     0.900000E-01   1.00800           0
     13196 MEMB     100      POPC     C212     CTL2    -0.180000       12.0110           0
     13197 MEMB     100      POPC     H12R     HAL2     0.900000E-01   1.00800           0
     13198 MEMB     100      POPC     H12S     HAL2     0.900000E-01   1.00800           0
     13199 MEMB     100      POPC     C213     CTL2    -0.180000       12.0110           0
     13200 MEMB     100      POPC     H13R     HAL2     0.900000E-01   1.00800           0
     13201 MEMB     100      POPC     H13S     HAL2     0.900000E-01   1.00800           0
     13202 MEMB     100      POPC     C214     CTL2    -0.180000       12.0110           0
     13203 MEMB     100      POPC     H14R     HAL2     0.900000E-01   1.00800           0
     13204 MEMB     100      POPC     H14S     HAL2     0.900000E-01   1.00800           0
     13205 MEMB     100      POPC     C215     CTL2    -0.180000       12.0110           0
     13206 MEMB     100      POPC     H15R     HAL2     0.900000E-01   1.00800           0
     13207 MEMB     100      POPC     H15S     HAL2     0.900000E-01   1.00800           0
     13208 MEMB     100      POPC     C216     CTL2    -0.180000       12.0110           0
     13209 MEMB     100      POPC     H16R     HAL2     0.900000E-01   1.00800           0
     13210 MEMB     100      POPC     H16S     HAL2     0.900000E-01   1.00800           0
     13211 MEMB     100      POPC     C217     CTL2    -0.180000       12.0110           0
     13212 MEMB     100      POPC     H17R     HAL2     0.900000E-01   1.00800           0
     13213 MEMB     100      POPC     H17S     HAL2     0.900000E-01   1.00800           0
     13214 MEMB     100      POPC     C218     CTL3    -0.270000       12.0110           0
     13215 MEMB     100      POPC     H18R     HAL3     0.900000E-01   1.00800           0
     13216 MEMB     100      POPC     H18S     HAL3     0.900000E-01   1.00800           0
     13217 MEMB     100      POPC     H18T     HAL3     0.900000E-01   1.00800           0
     13218 MEMB     100      POPC     C33      CTL2    -0.180000       12.0110           0
     13219 MEMB     100      POPC     H3X      HAL2     0.900000E-01   1.00800           0
     13220 MEMB     100      POPC     H3Y      HAL2     0.900000E-01   1.00800           0
     13221 MEMB     100      POPC     C34      CTL2    -0.180000       12.0110           0
     13222 MEMB     100      POPC     H4X      HAL2     0.900000E-01   1.00800           0
     13223 MEMB     100      POPC     H4Y      HAL2     0.900000E-01   1.00800           0
     13224 MEMB     100      POPC     C35      CTL2    -0.180000       12.0110           0
     13225 MEMB     100      POPC     H5X      HAL2     0.900000E-01   1.00800           0
     13226 MEMB     100      POPC     H5Y      HAL2     0.900000E-01   1.00800           0
     13227 MEMB     100      POPC     C36      CTL2    -0.180000       12.0110           0
     13228 MEMB     100      POPC     H6X      HAL2     0.900000E-01   1.00800           0
     13229 MEMB     100      POPC     H6Y      HAL2     0.900000E-01   1.00800           0
     13230 MEMB     100      POPC     C37      CTL2    -0.180000       12.0110           0
     13231 MEMB     100      POPC     H7X      HAL2     0.900000E-01   1.00800           0
     13232 MEMB     100      POPC     H7Y      HAL2     0.900000E-01   1.00800           0
     13233 MEMB     100      POPC     C38      CTL2    -0.180000       12.0110           0
     13234 MEMB     100      POPC     H8X      HAL2     0.900000E-01   1.00800           0
     13235 MEMB     100      POPC     H8Y      HAL2     0.900000E-01   1.00800           0
     13236 MEMB     100      POPC     C39      CTL2    -0.180000       12.0110           0
     13237 MEMB     100      POPC     H9X      HAL2     0.900000E-01   1.00800           0
     13238 MEMB     100      POPC     H9Y      HAL2     0.900000E-01   1.00800           0
     13239 MEMB     100      POPC     C310     CTL2    -0.180000       12.0110           0
     13240 MEMB     100      POPC     H10X     HAL2     0.900000E-01   1.00800           0
     13241 MEMB     100      POPC     H10Y     HAL2     0.900000E-01   1.00800           0
     13242 MEMB     100      POPC     C311     CTL2    -0.180000       12.0110           0
     13243 MEMB     100      POPC     H11X     HAL2     0.900000E-01   1.00800           0
     13244 MEMB     100      POPC     H11Y     HAL2     0.900000E-01   1.00800           0
     13245 MEMB     100      POPC     C312     CTL2    -0.180000       12.0110           0
     13246 MEMB     100      POPC     H12X     HAL2     0.900000E-01   1.00800           0
     13247 MEMB     100      POPC     H12Y     HAL2     0.900000E-01   1.00800           0
     13248 MEMB     100      POPC     C313     CTL2    -0.180000       12.0110           0
     13249 MEMB     100      POPC     H13X     HAL2     0.900000E-01   1.00800           0
     13250 MEMB     100      POPC     H13Y     HAL2     0.900000E-01   1.00800           0
     13251 MEMB     100      POPC     C314     CTL2    -0.180000       12.0110           0
     13252 MEMB     100      POPC     H14X     HAL2     0.900000E-01   1.00800           0
     13253 MEMB     100      POPC     H14Y     HAL2     0.900000E-01   1.00800           0
     13254 MEMB     100      POPC     C315     CTL2    -0.180000       12.0110           0
     13255 MEMB     100      POPC     H15X     HAL2     0.900000E-01   1.00800           0
     13256 MEMB     100      POPC     H15Y     HAL2     0.900000E-01   1.00800           0
     13257 MEMB     100      POPC     C316     CTL3    -0.270000       12.0110           0
     13258 MEMB     100      POPC     H16X     HAL3     0.900000E-01   1.00800           0
     13259 MEMB     100      POPC     H16Y     HAL3     0.900000E-01   1.00800           0
     13260 MEMB     100      POPC     H16Z     HAL3     0.900000E-01   1.00800           0
     13261 MEMB     101      POPC     N        NTL     -0.600000       14.0070           0
     13262 MEMB     101      POPC     C12      CTL2    -0.100000       12.0110           0
     13263 MEMB     101      POPC     H12A     HL       0.250000       1.00800           0
     13264 MEMB     101      POPC     H12B     HL       0.250000       1.00800           0
     13265 MEMB     101      POPC     C13      CTL5    -0.350000       12.0110           0
     13266 MEMB     101      POPC     H13A     HL       0.250000       1.00800           0
     13267 MEMB     101      POPC     H13B     HL       0.250000       1.00800           0
     13268 MEMB     101      POPC     H13C     HL       0.250000       1.00800           0
     13269 MEMB     101      POPC     C14      CTL5    -0.350000       12.0110           0
     13270 MEMB     101      POPC     H14A     HL       0.250000       1.00800           0
     13271 MEMB     101      POPC     H14B     HL       0.250000       1.00800           0
     13272 MEMB     101      POPC     H14C     HL       0.250000       1.00800           0
     13273 MEMB     101      POPC     C15      CTL5    -0.350000       12.0110           0
     13274 MEMB     101      POPC     H15A     HL       0.250000       1.00800           0
     13275 MEMB     101      POPC     H15B     HL       0.250000       1.00800           0
     13276 MEMB     101      POPC     H15C     HL       0.250000       1.00800           0
     13277 MEMB     101      POPC     C11      CTL2    -0.800000E-01   12.0110           0
     13278 MEMB     101      POPC     H11A     HAL2     0.900000E-01   1.00800           0
     13279 MEMB     101      POPC     H11B     HAL2     0.900000E-01   1.00800           0
     13280 MEMB     101      POPC     P        PL        1.50000       30.9740           0
     13281 MEMB     101      POPC     O13      O2L     -0.780000       15.9994           0
     13282 MEMB     101      POPC     O14      O2L     -0.780000       15.9994           0
     13283 MEMB     101      POPC     O12      OSLP    -0.570000       15.9994           0
     13284 MEMB     101      POPC     O11      OSLP    -0.570000       15.9994           0
     13285 MEMB     101      POPC     C1       CTL2    -0.800000E-01   12.0110           0
     13286 MEMB     101      POPC     HA       HAL2     0.900000E-01   1.00800           0
     13287 MEMB     101      POPC     HB       HAL2     0.900000E-01   1.00800           0
     13288 MEMB     101      POPC     C2       CTL1     0.170000       12.0110           0
     13289 MEMB     101      POPC     HS       HAL1     0.900000E-01   1.00800           0
     13290 MEMB     101      POPC     O21      OSL     -0.490000       15.9994           0
     13291 MEMB     101      POPC     C21      CL       0.900000       12.0110           0
     13292 MEMB     101      POPC     O22      OBL     -0.630000       15.9994           0
     13293 MEMB     101      POPC     C22      CTL2    -0.220000       12.0110           0
     13294 MEMB     101      POPC     H2R      HAL2     0.900000E-01   1.00800           0
     13295 MEMB     101      POPC     H2S      HAL2     0.900000E-01   1.00800           0
     13296 MEMB     101      POPC     C3       CTL2     0.800000E-01   12.0110           0
     13297 MEMB     101      POPC     HX       HAL2     0.900000E-01   1.00800           0
     13298 MEMB     101      POPC     HY       HAL2     0.900000E-01   1.00800           0
     13299 MEMB     101      POPC     O31      OSL     -0.490000       15.9994           0
     13300 MEMB     101      POPC     C31      CL       0.900000       12.0110           0
     13301 MEMB     101      POPC     O32      OBL     -0.630000       15.9994           0
     13302 MEMB     101      POPC     C32      CTL2    -0.220000       12.0110           0
     13303 MEMB     101      POPC     H2X      HAL2     0.900000E-01   1.00800           0
     13304 MEMB     101      POPC     H2Y      HAL2     0.900000E-01   1.00800           0
     13305 MEMB     101      POPC     C23      CTL2    -0.180000       12.0110           0
     13306 MEMB     101      POPC     H3R      HAL2     0.900000E-01   1.00800           0
     13307 MEMB     101      POPC     H3S      HAL2     0.900000E-01   1.00800           0
     13308 MEMB     101      POPC     C24      CTL2    -0.180000       12.0110           0
     13309 MEMB     101      POPC     H4R      HAL2     0.900000E-01   1.00800           0
     13310 MEMB     101      POPC     H4S      HAL2     0.900000E-01   1.00800           0
     13311 MEMB     101      POPC     C25      CTL2    -0.180000       12.0110           0
     13312 MEMB     101      POPC     H5R      HAL2     0.900000E-01   1.00800           0
     13313 MEMB     101      POPC     H5S      HAL2     0.900000E-01   1.00800           0
     13314 MEMB     101      POPC     C26      CTL2    -0.180000       12.0110           0
     13315 MEMB     101      POPC     H6R      HAL2     0.900000E-01   1.00800           0
     13316 MEMB     101      POPC     H6S      HAL2     0.900000E-01   1.00800           0
     13317 MEMB     101      POPC     C27      CTL2    -0.180000       12.0110           0
     13318 MEMB     101      POPC     H7R      HAL2     0.900000E-01   1.00800           0
     13319 MEMB     101      POPC     H7S      HAL2     0.900000E-01   1.00800           0
     13320 MEMB     101      POPC     C28      CTL2    -0.180000       12.0110           0
     13321 MEMB     101      POPC     H8R      HAL2     0.900000E-01   1.00800           0
     13322 MEMB     101      POPC     H8S      HAL2     0.900000E-01   1.00800           0
     13323 MEMB     101      POPC     C29      CEL1    -0.150000       12.0110           0
     13324 MEMB     101      POPC     H91      HEL1     0.150000       1.00800           0
     13325 MEMB     101      POPC     C210     CEL1    -0.150000       12.0110           0
     13326 MEMB     101      POPC     H101     HEL1     0.150000       1.00800           0
     13327 MEMB     101      POPC     C211     CTL2    -0.180000       12.0110           0
     13328 MEMB     101      POPC     H11R     HAL2     0.900000E-01   1.00800           0
     13329 MEMB     101      POPC     H11S     HAL2     0.900000E-01   1.00800           0
     13330 MEMB     101      POPC     C212     CTL2    -0.180000       12.0110           0
     13331 MEMB     101      POPC     H12R     HAL2     0.900000E-01   1.00800           0
     13332 MEMB     101      POPC     H12S     HAL2     0.900000E-01   1.00800           0
     13333 MEMB     101      POPC     C213     CTL2    -0.180000       12.0110           0
     13334 MEMB     101      POPC     H13R     HAL2     0.900000E-01   1.00800           0
     13335 MEMB     101      POPC     H13S     HAL2     0.900000E-01   1.00800           0
     13336 MEMB     101      POPC     C214     CTL2    -0.180000       12.0110           0
     13337 MEMB     101      POPC     H14R     HAL2     0.900000E-01   1.00800           0
     13338 MEMB     101      POPC     H14S     HAL2     0.900000E-01   1.00800           0
     13339 MEMB     101      POPC     C215     CTL2    -0.180000       12.0110           0
     13340 MEMB     101      POPC     H15R     HAL2     0.900000E-01   1.00800           0
     13341 MEMB     101      POPC     H15S     HAL2     0.900000E-01   1.00800           0
     13342 MEMB     101      POPC     C216     CTL2    -0.180000       12.0110           0
     13343 MEMB     101      POPC     H16R     HAL2     0.900000E-01   1.00800           0
     13344 MEMB     101      POPC     H16S     HAL2     0.900000E-01   1.00800           0
     13345 MEMB     101      POPC     C217     CTL2    -0.180000       12.0110           0
     13346 MEMB     101      POPC     H17R     HAL2     0.900000E-01   1.00800           0
     13347 MEMB     101      POPC     H17S     HAL2     0.900000E-01   1.00800           0
     13348 MEMB     101      POPC     C218     CTL3    -0.270000       12.0110           0
     13349 MEMB     101      POPC     H18R     HAL3     0.900000E-01   1.00800           0
     13350 MEMB     101      POPC     H18S     HAL3     0.900000E-01   1.00800           0
     13351 MEMB     101      POPC     H18T     HAL3     0.900000E-01   1.00800           0
     13352 MEMB     101      POPC     C33      CTL2    -0.180000       12.0110           0
     13353 MEMB     101      POPC     H3X      HAL2     0.900000E-01   1.00800           0
     13354 MEMB     101      POPC     H3Y      HAL2     0.900000E-01   1.00800           0
     13355 MEMB     101      POPC     C34      CTL2    -0.180000       12.0110           0
     13356 MEMB     101      POPC     H4X      HAL2     0.900000E-01   1.00800           0
     13357 MEMB     101      POPC     H4Y      HAL2     0.900000E-01   1.00800           0
     13358 MEMB     101      POPC     C35      CTL2    -0.180000       12.0110           0
     13359 MEMB     101      POPC     H5X      HAL2     0.900000E-01   1.00800           0
     13360 MEMB     101      POPC     H5Y      HAL2     0.900000E-01   1.00800           0
     13361 MEMB     101      POPC     C36      CTL2    -0.180000       12.0110           0
     13362 MEMB     101      POPC     H6X      HAL2     0.900000E-01   1.00800           0
     13363 MEMB     101      POPC     H6Y      HAL2     0.900000E-01   1.00800           0
     13364 MEMB     101      POPC     C37      CTL2    -0.180000       12.0110           0
     13365 MEMB     101      POPC     H7X      HAL2     0.900000E-01   1.00800           0
     13366 MEMB     101      POPC     H7Y      HAL2     0.900000E-01   1.00800           0
     13367 MEMB     101      POPC     C38      CTL2    -0.180000       12.0110           0
     13368 MEMB     101      POPC     H8X      HAL2     0.900000E-01   1.00800           0
     13369 MEMB     101      POPC     H8Y      HAL2     0.900000E-01   1.00800           0
     13370 MEMB     101      POPC     C39      CTL2    -0.180000       12.0110           0
     13371 MEMB     101      POPC     H9X      HAL2     0.900000E-01   1.00800           0
     13372 MEMB     101      POPC     H9Y      HAL2     0.900000E-01   1.00800           0
     13373 MEMB     101      POPC     C310     CTL2    -0.180000       12.0110           0
     13374 MEMB     101      POPC     H10X     HAL2     0.900000E-01   1.00800           0
     13375 MEMB     101      POPC     H10Y     HAL2     0.900000E-01   1.00800           0
     13376 MEMB     101      POPC     C311     CTL2    -0.180000       12.0110           0
     13377 MEMB     101      POPC     H11X     HAL2     0.900000E-01   1.00800           0
     13378 MEMB     101      POPC     H11Y     HAL2     0.900000E-01   1.00800           0
     13379 MEMB     101      POPC     C312     CTL2    -0.180000       12.0110           0
     13380 MEMB     101      POPC     H12X     HAL2     0.900000E-01   1.00800           0
     13381 MEMB     101      POPC     H12Y     HAL2     0.900000E-01   1.00800           0
     13382 MEMB     101      POPC     C313     CTL2    -0.180000       12.0110           0
     13383 MEMB     101      POPC     H13X     HAL2     0.900000E-01   1.00800           0
     13384 MEMB     101      POPC     H13Y     HAL2     0.900000E-01   1.00800           0
     13385 MEMB     101      POPC     C314     CTL2    -0.180000       12.0110           0
     13386 MEMB     101      POPC     H14X     HAL2     0.900000E-01   1.00800           0
     13387 MEMB     101      POPC     H14Y     HAL2     0.900000E-01   1.00800           0
     13388 MEMB     101      POPC     C315     CTL2    -0.180000       12.0110           0
     13389 MEMB     101      POPC     H15X     HAL2     0.900000E-01   1.00800           0
     13390 MEMB     101      POPC     H15Y     HAL2     0.900000E-01   1.00800           0
     13391 MEMB     101      POPC     C316     CTL3    -0.270000       12.0110           0
     13392 MEMB     101      POPC     H16X     HAL3     0.900000E-01   1.00800           0
     13393 MEMB     101      POPC     H16Y     HAL3     0.900000E-01   1.00800           0
     13394 MEMB     101      POPC     H16Z     HAL3     0.900000E-01   1.00800           0
     13395 MEMB     102      POPC     N        NTL     -0.600000       14.0070           0
     13396 MEMB     102      POPC     C12      CTL2    -0.100000       12.0110           0
     13397 MEMB     102      POPC     H12A     HL       0.250000       1.00800           0
     13398 MEMB     102      POPC     H12B     HL       0.250000       1.00800           0
     13399 MEMB     102      POPC     C13      CTL5    -0.350000       12.0110           0
     13400 MEMB     102      POPC     H13A     HL       0.250000       1.00800           0
     13401 MEMB     102      POPC     H13B     HL       0.250000       1.00800           0
     13402 MEMB     102      POPC     H13C     HL       0.250000       1.00800           0
     13403 MEMB     102      POPC     C14      CTL5    -0.350000       12.0110           0
     13404 MEMB     102      POPC     H14A     HL       0.250000       1.00800           0
     13405 MEMB     102      POPC     H14B     HL       0.250000       1.00800           0
     13406 MEMB     102      POPC     H14C     HL       0.250000       1.00800           0
     13407 MEMB     102      POPC     C15      CTL5    -0.350000       12.0110           0
     13408 MEMB     102      POPC     H15A     HL       0.250000       1.00800           0
     13409 MEMB     102      POPC     H15B     HL       0.250000       1.00800           0
     13410 MEMB     102      POPC     H15C     HL       0.250000       1.00800           0
     13411 MEMB     102      POPC     C11      CTL2    -0.800000E-01   12.0110           0
     13412 MEMB     102      POPC     H11A     HAL2     0.900000E-01   1.00800           0
     13413 MEMB     102      POPC     H11B     HAL2     0.900000E-01   1.00800           0
     13414 MEMB     102      POPC     P        PL        1.50000       30.9740           0
     13415 MEMB     102      POPC     O13      O2L     -0.780000       15.9994           0
     13416 MEMB     102      POPC     O14      O2L     -0.780000       15.9994           0
     13417 MEMB     102      POPC     O12      OSLP    -0.570000       15.9994           0
     13418 MEMB     102      POPC     O11      OSLP    -0.570000       15.9994           0
     13419 MEMB     102      POPC     C1       CTL2    -0.800000E-01   12.0110           0
     13420 MEMB     102      POPC     HA       HAL2     0.900000E-01   1.00800           0
     13421 MEMB     102      POPC     HB       HAL2     0.900000E-01   1.00800           0
     13422 MEMB     102      POPC     C2       CTL1     0.170000       12.0110           0
     13423 MEMB     102      POPC     HS       HAL1     0.900000E-01   1.00800           0
     13424 MEMB     102      POPC     O21      OSL     -0.490000       15.9994           0
     13425 MEMB     102      POPC     C21      CL       0.900000       12.0110           0
     13426 MEMB     102      POPC     O22      OBL     -0.630000       15.9994           0
     13427 MEMB     102      POPC     C22      CTL2    -0.220000       12.0110           0
     13428 MEMB     102      POPC     H2R      HAL2     0.900000E-01   1.00800           0
     13429 MEMB     102      POPC     H2S      HAL2     0.900000E-01   1.00800           0
     13430 MEMB     102      POPC     C3       CTL2     0.800000E-01   12.0110           0
     13431 MEMB     102      POPC     HX       HAL2     0.900000E-01   1.00800           0
     13432 MEMB     102      POPC     HY       HAL2     0.900000E-01   1.00800           0
     13433 MEMB     102      POPC     O31      OSL     -0.490000       15.9994           0
     13434 MEMB     102      POPC     C31      CL       0.900000       12.0110           0
     13435 MEMB     102      POPC     O32      OBL     -0.630000       15.9994           0
     13436 MEMB     102      POPC     C32      CTL2    -0.220000       12.0110           0
     13437 MEMB     102      POPC     H2X      HAL2     0.900000E-01   1.00800           0
     13438 MEMB     102      POPC     H2Y      HAL2     0.900000E-01   1.00800           0
     13439 MEMB     102      POPC     C23      CTL2    -0.180000       12.0110           0
     13440 MEMB     102      POPC     H3R      HAL2     0.900000E-01   1.00800           0
     13441 MEMB     102      POPC     H3S      HAL2     0.900000E-01   1.00800           0
     13442 MEMB     102      POPC     C24      CTL2    -0.180000       12.0110           0
     13443 MEMB     102      POPC     H4R      HAL2     0.900000E-01   1.00800           0
     13444 MEMB     102      POPC     H4S      HAL2     0.900000E-01   1.00800           0
     13445 MEMB     102      POPC     C25      CTL2    -0.180000       12.0110           0
     13446 MEMB     102      POPC     H5R      HAL2     0.900000E-01   1.00800           0
     13447 MEMB     102      POPC     H5S      HAL2     0.900000E-01   1.00800           0
     13448 MEMB     102      POPC     C26      CTL2    -0.180000       12.0110           0
     13449 MEMB     102      POPC     H6R      HAL2     0.900000E-01   1.00800           0
     13450 MEMB     102      POPC     H6S      HAL2     0.900000E-01   1.00800           0
     13451 MEMB     102      POPC     C27      CTL2    -0.180000       12.0110           0
     13452 MEMB     102      POPC     H7R      HAL2     0.900000E-01   1.00800           0
     13453 MEMB     102      POPC     H7S      HAL2     0.900000E-01   1.00800           0
     13454 MEMB     102      POPC     C28      CTL2    -0.180000       12.0110           0
     13455 MEMB     102      POPC     H8R      HAL2     0.900000E-01   1.00800           0
     13456 MEMB     102      POPC     H8S      HAL2     0.900000E-01   1.00800           0
     13457 MEMB     102      POPC     C29      CEL1    -0.150000       12.0110           0
     13458 MEMB     102      POPC     H91      HEL1     0.150000       1.00800           0
     13459 MEMB     102      POPC     C210     CEL1    -0.150000       12.0110           0
     13460 MEMB     102      POPC     H101     HEL1     0.150000       1.00800           0
     13461 MEMB     102      POPC     C211     CTL2    -0.180000       12.0110           0
     13462 MEMB     102      POPC     H11R     HAL2     0.900000E-01   1.00800           0
     13463 MEMB     102      POPC     H11S     HAL2     0.900000E-01   1.00800           0
     13464 MEMB     102      POPC     C212     CTL2    -0.180000       12.0110           0
     13465 MEMB     102      POPC     H12R     HAL2     0.900000E-01   1.00800           0
     13466 MEMB     102      POPC     H12S     HAL2     0.900000E-01   1.00800           0
     13467 MEMB     102      POPC     C213     CTL2    -0.180000       12.0110           0
     13468 MEMB     102      POPC     H13R     HAL2     0.900000E-01   1.00800           0
     13469 MEMB     102      POPC     H13S     HAL2     0.900000E-01   1.00800           0
     13470 MEMB     102      POPC     C214     CTL2    -0.180000       12.0110           0
     13471 MEMB     102      POPC     H14R     HAL2     0.900000E-01   1.00800           0
     13472 MEMB     102      POPC     H14S     HAL2     0.900000E-01   1.00800           0
     13473 MEMB     102      POPC     C215     CTL2    -0.180000       12.0110           0
     13474 MEMB     102      POPC     H15R     HAL2     0.900000E-01   1.00800           0
     13475 MEMB     102      POPC     H15S     HAL2     0.900000E-01   1.00800           0
     13476 MEMB     102      POPC     C216     CTL2    -0.180000       12.0110           0
     13477 MEMB     102      POPC     H16R     HAL2     0.900000E-01   1.00800           0
     13478 MEMB     102      POPC     H16S     HAL2     0.900000E-01   1.00800           0
     13479 MEMB     102      POPC     C217     CTL2    -0.180000       12.0110           0
     13480 MEMB     102      POPC     H17R     HAL2     0.900000E-01   1.00800           0
     13481 MEMB     102      POPC     H17S     HAL2     0.900000E-01   1.00800           0
     13482 MEMB     102      POPC     C218     CTL3    -0.270000       12.0110           0
     13483 MEMB     102      POPC     H18R     HAL3     0.900000E-01   1.00800           0
     13484 MEMB     102      POPC     H18S     HAL3     0.900000E-01   1.00800           0
     13485 MEMB     102      POPC     H18T     HAL3     0.900000E-01   1.00800           0
     13486 MEMB     102      POPC     C33      CTL2    -0.180000       12.0110           0
     13487 MEMB     102      POPC     H3X      HAL2     0.900000E-01   1.00800           0
     13488 MEMB     102      POPC     H3Y      HAL2     0.900000E-01   1.00800           0
     13489 MEMB     102      POPC     C34      CTL2    -0.180000       12.0110           0
     13490 MEMB     102      POPC     H4X      HAL2     0.900000E-01   1.00800           0
     13491 MEMB     102      POPC     H4Y      HAL2     0.900000E-01   1.00800           0
     13492 MEMB     102      POPC     C35      CTL2    -0.180000       12.0110           0
     13493 MEMB     102      POPC     H5X      HAL2     0.900000E-01   1.00800           0
     13494 MEMB     102      POPC     H5Y      HAL2     0.900000E-01   1.00800           0
     13495 MEMB     102      POPC     C36      CTL2    -0.180000       12.0110           0
     13496 MEMB     102      POPC     H6X      HAL2     0.900000E-01   1.00800           0
     13497 MEMB     102      POPC     H6Y      HAL2     0.900000E-01   1.00800           0
     13498 MEMB     102      POPC     C37      CTL2    -0.180000       12.0110           0
     13499 MEMB     102      POPC     H7X      HAL2     0.900000E-01   1.00800           0
     13500 MEMB     102      POPC     H7Y      HAL2     0.900000E-01   1.00800           0
     13501 MEMB     102      POPC     C38      CTL2    -0.180000       12.0110           0
     13502 MEMB     102      POPC     H8X      HAL2     0.900000E-01   1.00800           0
     13503 MEMB     102      POPC     H8Y      HAL2     0.900000E-01   1.00800           0
     13504 MEMB     102      POPC     C39      CTL2    -0.180000       12.0110           0
     13505 MEMB     102      POPC     H9X      HAL2     0.900000E-01   1.00800           0
     13506 MEMB     102      POPC     H9Y      HAL2     0.900000E-01   1.00800           0
     13507 MEMB     102      POPC     C310     CTL2    -0.180000       12.0110           0
     13508 MEMB     102      POPC     H10X     HAL2     0.900000E-01   1.00800           0
     13509 MEMB     102      POPC     H10Y     HAL2     0.900000E-01   1.00800           0
     13510 MEMB     102      POPC     C311     CTL2    -0.180000       12.0110           0
     13511 MEMB     102      POPC     H11X     HAL2     0.900000E-01   1.00800           0
     13512 MEMB     102      POPC     H11Y     HAL2     0.900000E-01   1.00800           0
     13513 MEMB     102      POPC     C312     CTL2    -0.180000       12.0110           0
     13514 MEMB     102      POPC     H12X     HAL2     0.900000E-01   1.00800           0
     13515 MEMB     102      POPC     H12Y     HAL2     0.900000E-01   1.00800           0
     13516 MEMB     102      POPC     C313     CTL2    -0.180000       12.0110           0
     13517 MEMB     102      POPC     H13X     HAL2     0.900000E-01   1.00800           0
     13518 MEMB     102      POPC     H13Y     HAL2     0.900000E-01   1.00800           0
     13519 MEMB     102      POPC     C314     CTL2    -0.180000       12.0110           0
     13520 MEMB     102      POPC     H14X     HAL2     0.900000E-01   1.00800           0
     13521 MEMB     102      POPC     H14Y     HAL2     0.900000E-01   1.00800           0
     13522 MEMB     102      POPC     C315     CTL2    -0.180000       12.0110           0
     13523 MEMB     102      POPC     H15X     HAL2     0.900000E-01   1.00800           0
     13524 MEMB     102      POPC     H15Y     HAL2     0.900000E-01   1.00800           0
     13525 MEMB     102      POPC     C316     CTL3    -0.270000       12.0110           0
     13526 MEMB     102      POPC     H16X     HAL3     0.900000E-01   1.00800           0
     13527 MEMB     102      POPC     H16Y     HAL3     0.900000E-01   1.00800           0
     13528 MEMB     102      POPC     H16Z     HAL3     0.900000E-01   1.00800           0
     13529 MEMB     103      POPS     N        NH3L    -0.300000       14.0070           0
     13530 MEMB     103      POPS     HN1      HCL      0.330000       1.00800           0
     13531 MEMB     103      POPS     HN2      HCL      0.330000       1.00800           0
     13532 MEMB     103      POPS     HN3      HCL      0.330000       1.00800           0
     13533 MEMB     103      POPS     C12      CTL1     0.210000       12.0110           0
     13534 MEMB     103      POPS     H12A     HBL      0.100000       1.00800           0
     13535 MEMB     103      POPS     C13      CCL      0.340000       12.0110           0
     13536 MEMB     103      POPS     O13A     OCL     -0.670000       15.9994           0
     13537 MEMB     103      POPS     O13B     OCL     -0.670000       15.9994           0
     13538 MEMB     103      POPS     C11      CTL2    -0.800000E-01   12.0110           0
     13539 MEMB     103      POPS     H11A     HAL2     0.900000E-01   1.00800           0
     13540 MEMB     103      POPS     H11B     HAL2     0.900000E-01   1.00800           0
     13541 MEMB     103      POPS     P        PL        1.50000       30.9740           0
     13542 MEMB     103      POPS     O13      O2L     -0.780000       15.9994           0
     13543 MEMB     103      POPS     O14      O2L     -0.780000       15.9994           0
     13544 MEMB     103      POPS     O12      OSLP    -0.570000       15.9994           0
     13545 MEMB     103      POPS     O11      OSLP    -0.570000       15.9994           0
     13546 MEMB     103      POPS     C1       CTL2    -0.800000E-01   12.0110           0
     13547 MEMB     103      POPS     HA       HAL2     0.900000E-01   1.00800           0
     13548 MEMB     103      POPS     HB       HAL2     0.900000E-01   1.00800           0
     13549 MEMB     103      POPS     C2       CTL1     0.170000       12.0110           0
     13550 MEMB     103      POPS     HS       HAL1     0.900000E-01   1.00800           0
     13551 MEMB     103      POPS     O21      OSL     -0.490000       15.9994           0
     13552 MEMB     103      POPS     C21      CL       0.900000       12.0110           0
     13553 MEMB     103      POPS     O22      OBL     -0.630000       15.9994           0
     13554 MEMB     103      POPS     C22      CTL2    -0.220000       12.0110           0
     13555 MEMB     103      POPS     H2R      HAL2     0.900000E-01   1.00800           0
     13556 MEMB     103      POPS     H2S      HAL2     0.900000E-01   1.00800           0
     13557 MEMB     103      POPS     C3       CTL2     0.800000E-01   12.0110           0
     13558 MEMB     103      POPS     HX       HAL2     0.900000E-01   1.00800           0
     13559 MEMB     103      POPS     HY       HAL2     0.900000E-01   1.00800           0
     13560 MEMB     103      POPS     O31      OSL     -0.490000       15.9994           0
     13561 MEMB     103      POPS     C31      CL       0.900000       12.0110           0
     13562 MEMB     103      POPS     O32      OBL     -0.630000       15.9994           0
     13563 MEMB     103      POPS     C32      CTL2    -0.220000       12.0110           0
     13564 MEMB     103      POPS     H2X      HAL2     0.900000E-01   1.00800           0
     13565 MEMB     103      POPS     H2Y      HAL2     0.900000E-01   1.00800           0
     13566 MEMB     103      POPS     C23      CTL2    -0.180000       12.0110           0
     13567 MEMB     103      POPS     H3R      HAL2     0.900000E-01   1.00800           0
     13568 MEMB     103      POPS     H3S      HAL2     0.900000E-01   1.00800           0
     13569 MEMB     103      POPS     C24      CTL2    -0.180000       12.0110           0
     13570 MEMB     103      POPS     H4R      HAL2     0.900000E-01   1.00800           0
     13571 MEMB     103      POPS     H4S      HAL2     0.900000E-01   1.00800           0
     13572 MEMB     103      POPS     C25      CTL2    -0.180000       12.0110           0
     13573 MEMB     103      POPS     H5R      HAL2     0.900000E-01   1.00800           0
     13574 MEMB     103      POPS     H5S      HAL2     0.900000E-01   1.00800           0
     13575 MEMB     103      POPS     C26      CTL2    -0.180000       12.0110           0
     13576 MEMB     103      POPS     H6R      HAL2     0.900000E-01   1.00800           0
     13577 MEMB     103      POPS     H6S      HAL2     0.900000E-01   1.00800           0
     13578 MEMB     103      POPS     C27      CTL2    -0.180000       12.0110           0
     13579 MEMB     103      POPS     H7R      HAL2     0.900000E-01   1.00800           0
     13580 MEMB     103      POPS     H7S      HAL2     0.900000E-01   1.00800           0
     13581 MEMB     103      POPS     C28      CTL2    -0.180000       12.0110           0
     13582 MEMB     103      POPS     H8R      HAL2     0.900000E-01   1.00800           0
     13583 MEMB     103      POPS     H8S      HAL2     0.900000E-01   1.00800           0
     13584 MEMB     103      POPS     C29      CEL1    -0.150000       12.0110           0
     13585 MEMB     103      POPS     H91      HEL1     0.150000       1.00800           0
     13586 MEMB     103      POPS     C210     CEL1    -0.150000       12.0110           0
     13587 MEMB     103      POPS     H101     HEL1     0.150000       1.00800           0
     13588 MEMB     103      POPS     C211     CTL2    -0.180000       12.0110           0
     13589 MEMB     103      POPS     H11R     HAL2     0.900000E-01   1.00800           0
     13590 MEMB     103      POPS     H11S     HAL2     0.900000E-01   1.00800           0
     13591 MEMB     103      POPS     C212     CTL2    -0.180000       12.0110           0
     13592 MEMB     103      POPS     H12R     HAL2     0.900000E-01   1.00800           0
     13593 MEMB     103      POPS     H12S     HAL2     0.900000E-01   1.00800           0
     13594 MEMB     103      POPS     C213     CTL2    -0.180000       12.0110           0
     13595 MEMB     103      POPS     H13R     HAL2     0.900000E-01   1.00800           0
     13596 MEMB     103      POPS     H13S     HAL2     0.900000E-01   1.00800           0
     13597 MEMB     103      POPS     C214     CTL2    -0.180000       12.0110           0
     13598 MEMB     103      POPS     H14R     HAL2     0.900000E-01   1.00800           0
     13599 MEMB     103      POPS     H14S     HAL2     0.900000E-01   1.00800           0
     13600 MEMB     103      POPS     C215     CTL2    -0.180000       12.0110           0
     13601 MEMB     103      POPS     H15R     HAL2     0.900000E-01   1.00800           0
     13602 MEMB     103      POPS     H15S     HAL2     0.900000E-01   1.00800           0
     13603 MEMB     103      POPS     C216     CTL2    -0.180000       12.0110           0
     13604 MEMB     103      POPS     H16R     HAL2     0.900000E-01   1.00800           0
     13605 MEMB     103      POPS     H16S     HAL2     0.900000E-01   1.00800           0
     13606 MEMB     103      POPS     C217     CTL2    -0.180000       12.0110           0
     13607 MEMB     103      POPS     H17R     HAL2     0.900000E-01   1.00800           0
     13608 MEMB     103      POPS     H17S     HAL2     0.900000E-01   1.00800           0
     13609 MEMB     103      POPS     C218     CTL3    -0.270000       12.0110           0
     13610 MEMB     103      POPS     H18R     HAL3     0.900000E-01   1.00800           0
     13611 MEMB     103      POPS     H18S     HAL3     0.900000E-01   1.00800           0
     13612 MEMB     103      POPS     H18T     HAL3     0.900000E-01   1.00800           0
     13613 MEMB     103      POPS     C33      CTL2    -0.180000       12.0110           0
     13614 MEMB     103      POPS     H3X      HAL2     0.900000E-01   1.00800           0
     13615 MEMB     103      POPS     H3Y      HAL2     0.900000E-01   1.00800           0
     13616 MEMB     103      POPS     C34      CTL2    -0.180000       12.0110           0
     13617 MEMB     103      POPS     H4X      HAL2     0.900000E-01   1.00800           0
     13618 MEMB     103      POPS     H4Y      HAL2     0.900000E-01   1.00800           0
     13619 MEMB     103      POPS     C35      CTL2    -0.180000       12.0110           0
     13620 MEMB     103      POPS     H5X      HAL2     0.900000E-01   1.00800           0
     13621 MEMB     103      POPS     H5Y      HAL2     0.900000E-01   1.00800           0
     13622 MEMB     103      POPS     C36      CTL2    -0.180000       12.0110           0
     13623 MEMB     103      POPS     H6X      HAL2     0.900000E-01   1.00800           0
     13624 MEMB     103      POPS     H6Y      HAL2     0.900000E-01   1.00800           0
     13625 MEMB     103      POPS     C37      CTL2    -0.180000       12.0110           0
     13626 MEMB     103      POPS     H7X      HAL2     0.900000E-01   1.00800           0
     13627 MEMB     103      POPS     H7Y      HAL2     0.900000E-01   1.00800           0
     13628 MEMB     103      POPS     C38      CTL2    -0.180000       12.0110           0
     13629 MEMB     103      POPS     H8X      HAL2     0.900000E-01   1.00800           0
     13630 MEMB     103      POPS     H8Y      HAL2     0.900000E-01   1.00800           0
     13631 MEMB     103      POPS     C39      CTL2    -0.180000       12.0110           0
     13632 MEMB     103      POPS     H9X      HAL2     0.900000E-01   1.00800           0
     13633 MEMB     103      POPS     H9Y      HAL2     0.900000E-01   1.00800           0
     13634 MEMB     103      POPS     C310     CTL2    -0.180000       12.0110           0
     13635 MEMB     103      POPS     H10X     HAL2     0.900000E-01   1.00800           0
     13636 MEMB     103      POPS     H10Y     HAL2     0.900000E-01   1.00800           0
     13637 MEMB     103      POPS     C311     CTL2    -0.180000       12.0110           0
     13638 MEMB     103      POPS     H11X     HAL2     0.900000E-01   1.00800           0
     13639 MEMB     103      POPS     H11Y     HAL2     0.900000E-01   1.00800           0
     13640 MEMB     103      POPS     C312     CTL2    -0.180000       12.0110           0
     13641 MEMB     103      POPS     H12X     HAL2     0.900000E-01   1.00800           0
     13642 MEMB     103      POPS     H12Y     HAL2     0.900000E-01   1.00800           0
     13643 MEMB     103      POPS     C313     CTL2    -0.180000       12.0110           0
     13644 MEMB     103      POPS     H13X     HAL2     0.900000E-01   1.00800           0
     13645 MEMB     103      POPS     H13Y     HAL2     0.900000E-01   1.00800           0
     13646 MEMB     103      POPS     C314     CTL2    -0.180000       12.0110           0
     13647 MEMB     103      POPS     H14X     HAL2     0.900000E-01   1.00800           0
     13648 MEMB     103      POPS     H14Y     HAL2     0.900000E-01   1.00800           0
     13649 MEMB     103      POPS     C315     CTL2    -0.180000       12.0110           0
     13650 MEMB     103      POPS     H15X     HAL2     0.900000E-01   1.00800           0
     13651 MEMB     103      POPS     H15Y     HAL2     0.900000E-01   1.00800           0
     13652 MEMB     103      POPS     C316     CTL3    -0.270000       12.0110           0
     13653 MEMB     103      POPS     H16X     HAL3     0.900000E-01   1.00800           0
     13654 MEMB     103      POPS     H16Y     HAL3     0.900000E-01   1.00800           0
     13655 MEMB     103      POPS     H16Z     HAL3     0.900000E-01   1.00800           0
     13656 MEMB     104      POPC     N        NTL     -0.600000       14.0070           0
     13657 MEMB     104      POPC     C12      CTL2    -0.100000       12.0110           0
     13658 MEMB     104      POPC     H12A     HL       0.250000       1.00800           0
     13659 MEMB     104      POPC     H12B     HL       0.250000       1.00800           0
     13660 MEMB     104      POPC     C13      CTL5    -0.350000       12.0110           0
     13661 MEMB     104      POPC     H13A     HL       0.250000       1.00800           0
     13662 MEMB     104      POPC     H13B     HL       0.250000       1.00800           0
     13663 MEMB     104      POPC     H13C     HL       0.250000       1.00800           0
     13664 MEMB     104      POPC     C14      CTL5    -0.350000       12.0110           0
     13665 MEMB     104      POPC     H14A     HL       0.250000       1.00800           0
     13666 MEMB     104      POPC     H14B     HL       0.250000       1.00800           0
     13667 MEMB     104      POPC     H14C     HL       0.250000       1.00800           0
     13668 MEMB     104      POPC     C15      CTL5    -0.350000       12.0110           0
     13669 MEMB     104      POPC     H15A     HL       0.250000       1.00800           0
     13670 MEMB     104      POPC     H15B     HL       0.250000       1.00800           0
     13671 MEMB     104      POPC     H15C     HL       0.250000       1.00800           0
     13672 MEMB     104      POPC     C11      CTL2    -0.800000E-01   12.0110           0
     13673 MEMB     104      POPC     H11A     HAL2     0.900000E-01   1.00800           0
     13674 MEMB     104      POPC     H11B     HAL2     0.900000E-01   1.00800           0
     13675 MEMB     104      POPC     P        PL        1.50000       30.9740           0
     13676 MEMB     104      POPC     O13      O2L     -0.780000       15.9994           0
     13677 MEMB     104      POPC     O14      O2L     -0.780000       15.9994           0
     13678 MEMB     104      POPC     O12      OSLP    -0.570000       15.9994           0
     13679 MEMB     104      POPC     O11      OSLP    -0.570000       15.9994           0
     13680 MEMB     104      POPC     C1       CTL2    -0.800000E-01   12.0110           0
     13681 MEMB     104      POPC     HA       HAL2     0.900000E-01   1.00800           0
     13682 MEMB     104      POPC     HB       HAL2     0.900000E-01   1.00800           0
     13683 MEMB     104      POPC     C2       CTL1     0.170000       12.0110           0
     13684 MEMB     104      POPC     HS       HAL1     0.900000E-01   1.00800           0
     13685 MEMB     104      POPC     O21      OSL     -0.490000       15.9994           0
     13686 MEMB     104      POPC     C21      CL       0.900000       12.0110           0
     13687 MEMB     104      POPC     O22      OBL     -0.630000       15.9994           0
     13688 MEMB     104      POPC     C22      CTL2    -0.220000       12.0110           0
     13689 MEMB     104      POPC     H2R      HAL2     0.900000E-01   1.00800           0
     13690 MEMB     104      POPC     H2S      HAL2     0.900000E-01   1.00800           0
     13691 MEMB     104      POPC     C3       CTL2     0.800000E-01   12.0110           0
     13692 MEMB     104      POPC     HX       HAL2     0.900000E-01   1.00800           0
     13693 MEMB     104      POPC     HY       HAL2     0.900000E-01   1.00800           0
     13694 MEMB     104      POPC     O31      OSL     -0.490000       15.9994           0
     13695 MEMB     104      POPC     C31      CL       0.900000       12.0110           0
     13696 MEMB     104      POPC     O32      OBL     -0.630000       15.9994           0
     13697 MEMB     104      POPC     C32      CTL2    -0.220000       12.0110           0
     13698 MEMB     104      POPC     H2X      HAL2     0.900000E-01   1.00800           0
     13699 MEMB     104      POPC     H2Y      HAL2     0.900000E-01   1.00800           0
     13700 MEMB     104      POPC     C23      CTL2    -0.180000       12.0110           0
     13701 MEMB     104      POPC     H3R      HAL2     0.900000E-01   1.00800           0
     13702 MEMB     104      POPC     H3S      HAL2     0.900000E-01   1.00800           0
     13703 MEMB     104      POPC     C24      CTL2    -0.180000       12.0110           0
     13704 MEMB     104      POPC     H4R      HAL2     0.900000E-01   1.00800           0
     13705 MEMB     104      POPC     H4S      HAL2     0.900000E-01   1.00800           0
     13706 MEMB     104      POPC     C25      CTL2    -0.180000       12.0110           0
     13707 MEMB     104      POPC     H5R      HAL2     0.900000E-01   1.00800           0
     13708 MEMB     104      POPC     H5S      HAL2     0.900000E-01   1.00800           0
     13709 MEMB     104      POPC     C26      CTL2    -0.180000       12.0110           0
     13710 MEMB     104      POPC     H6R      HAL2     0.900000E-01   1.00800           0
     13711 MEMB     104      POPC     H6S      HAL2     0.900000E-01   1.00800           0
     13712 MEMB     104      POPC     C27      CTL2    -0.180000       12.0110           0
     13713 MEMB     104      POPC     H7R      HAL2     0.900000E-01   1.00800           0
     13714 MEMB     104      POPC     H7S      HAL2     0.900000E-01   1.00800           0
     13715 MEMB     104      POPC     C28      CTL2    -0.180000       12.0110           0
     13716 MEMB     104      POPC     H8R      HAL2     0.900000E-01   1.00800           0
     13717 MEMB     104      POPC     H8S      HAL2     0.900000E-01   1.00800           0
     13718 MEMB     104      POPC     C29      CEL1    -0.150000       12.0110           0
     13719 MEMB     104      POPC     H91      HEL1     0.150000       1.00800           0
     13720 MEMB     104      POPC     C210     CEL1    -0.150000       12.0110           0
     13721 MEMB     104      POPC     H101     HEL1     0.150000       1.00800           0
     13722 MEMB     104      POPC     C211     CTL2    -0.180000       12.0110           0
     13723 MEMB     104      POPC     H11R     HAL2     0.900000E-01   1.00800           0
     13724 MEMB     104      POPC     H11S     HAL2     0.900000E-01   1.00800           0
     13725 MEMB     104      POPC     C212     CTL2    -0.180000       12.0110           0
     13726 MEMB     104      POPC     H12R     HAL2     0.900000E-01   1.00800           0
     13727 MEMB     104      POPC     H12S     HAL2     0.900000E-01   1.00800           0
     13728 MEMB     104      POPC     C213     CTL2    -0.180000       12.0110           0
     13729 MEMB     104      POPC     H13R     HAL2     0.900000E-01   1.00800           0
     13730 MEMB     104      POPC     H13S     HAL2     0.900000E-01   1.00800           0
     13731 MEMB     104      POPC     C214     CTL2    -0.180000       12.0110           0
     13732 MEMB     104      POPC     H14R     HAL2     0.900000E-01   1.00800           0
     13733 MEMB     104      POPC     H14S     HAL2     0.900000E-01   1.00800           0
     13734 MEMB     104      POPC     C215     CTL2    -0.180000       12.0110           0
     13735 MEMB     104      POPC     H15R     HAL2     0.900000E-01   1.00800           0
     13736 MEMB     104      POPC     H15S     HAL2     0.900000E-01   1.00800           0
     13737 MEMB     104      POPC     C216     CTL2    -0.180000       12.0110           0
     13738 MEMB     104      POPC     H16R     HAL2     0.900000E-01   1.00800           0
     13739 MEMB     104      POPC     H16S     HAL2     0.900000E-01   1.00800           0
     13740 MEMB     104      POPC     C217     CTL2    -0.180000       12.0110           0
     13741 MEMB     104      POPC     H17R     HAL2     0.900000E-01   1.00800           0
     13742 MEMB     104      POPC     H17S     HAL2     0.900000E-01   1.00800           0
     13743 MEMB     104      POPC     C218     CTL3    -0.270000       12.0110           0
     13744 MEMB     104      POPC     H18R     HAL3     0.900000E-01   1.00800           0
     13745 MEMB     104      POPC     H18S     HAL3     0.900000E-01   1.00800           0
     13746 MEMB     104      POPC     H18T     HAL3     0.900000E-01   1.00800           0
     13747 MEMB     104      POPC     C33      CTL2    -0.180000       12.0110           0
     13748 MEMB     104      POPC     H3X      HAL2     0.900000E-01   1.00800           0
     13749 MEMB     104      POPC     H3Y      HAL2     0.900000E-01   1.00800           0
     13750 MEMB     104      POPC     C34      CTL2    -0.180000       12.0110           0
     13751 MEMB     104      POPC     H4X      HAL2     0.900000E-01   1.00800           0
     13752 MEMB     104      POPC     H4Y      HAL2     0.900000E-01   1.00800           0
     13753 MEMB     104      POPC     C35      CTL2    -0.180000       12.0110           0
     13754 MEMB     104      POPC     H5X      HAL2     0.900000E-01   1.00800           0
     13755 MEMB     104      POPC     H5Y      HAL2     0.900000E-01   1.00800           0
     13756 MEMB     104      POPC     C36      CTL2    -0.180000       12.0110           0
     13757 MEMB     104      POPC     H6X      HAL2     0.900000E-01   1.00800           0
     13758 MEMB     104      POPC     H6Y      HAL2     0.900000E-01   1.00800           0
     13759 MEMB     104      POPC     C37      CTL2    -0.180000       12.0110           0
     13760 MEMB     104      POPC     H7X      HAL2     0.900000E-01   1.00800           0
     13761 MEMB     104      POPC     H7Y      HAL2     0.900000E-01   1.00800           0
     13762 MEMB     104      POPC     C38      CTL2    -0.180000       12.0110           0
     13763 MEMB     104      POPC     H8X      HAL2     0.900000E-01   1.00800           0
     13764 MEMB     104      POPC     H8Y      HAL2     0.900000E-01   1.00800           0
     13765 MEMB     104      POPC     C39      CTL2    -0.180000       12.0110           0
     13766 MEMB     104      POPC     H9X      HAL2     0.900000E-01   1.00800           0
     13767 MEMB     104      POPC     H9Y      HAL2     0.900000E-01   1.00800           0
     13768 MEMB     104      POPC     C310     CTL2    -0.180000       12.0110           0
     13769 MEMB     104      POPC     H10X     HAL2     0.900000E-01   1.00800           0
     13770 MEMB     104      POPC     H10Y     HAL2     0.900000E-01   1.00800           0
     13771 MEMB     104      POPC     C311     CTL2    -0.180000       12.0110           0
     13772 MEMB     104      POPC     H11X     HAL2     0.900000E-01   1.00800           0
     13773 MEMB     104      POPC     H11Y     HAL2     0.900000E-01   1.00800           0
     13774 MEMB     104      POPC     C312     CTL2    -0.180000       12.0110           0
     13775 MEMB     104      POPC     H12X     HAL2     0.900000E-01   1.00800           0
     13776 MEMB     104      POPC     H12Y     HAL2     0.900000E-01   1.00800           0
     13777 MEMB     104      POPC     C313     CTL2    -0.180000       12.0110           0
     13778 MEMB     104      POPC     H13X     HAL2     0.900000E-01   1.00800           0
     13779 MEMB     104      POPC     H13Y     HAL2     0.900000E-01   1.00800           0
     13780 MEMB     104      POPC     C314     CTL2    -0.180000       12.0110           0
     13781 MEMB     104      POPC     H14X     HAL2     0.900000E-01   1.00800           0
     13782 MEMB     104      POPC     H14Y     HAL2     0.900000E-01   1.00800           0
     13783 MEMB     104      POPC     C315     CTL2    -0.180000       12.0110           0
     13784 MEMB     104      POPC     H15X     HAL2     0.900000E-01   1.00800           0
     13785 MEMB     104      POPC     H15Y     HAL2     0.900000E-01   1.00800           0
     13786 MEMB     104      POPC     C316     CTL3    -0.270000       12.0110           0
     13787 MEMB     104      POPC     H16X     HAL3     0.900000E-01   1.00800           0
     13788 MEMB     104      POPC     H16Y     HAL3     0.900000E-01   1.00800           0
     13789 MEMB     104      POPC     H16Z     HAL3     0.900000E-01   1.00800           0
     13790 MEMB     105      POPS     N        NH3L    -0.300000       14.0070           0
     13791 MEMB     105      POPS     HN1      HCL      0.330000       1.00800           0
     13792 MEMB     105      POPS     HN2      HCL      0.330000       1.00800           0
     13793 MEMB     105      POPS     HN3      HCL      0.330000       1.00800           0
     13794 MEMB     105      POPS     C12      CTL1     0.210000       12.0110           0
     13795 MEMB     105      POPS     H12A     HBL      0.100000       1.00800           0
     13796 MEMB     105      POPS     C13      CCL      0.340000       12.0110           0
     13797 MEMB     105      POPS     O13A     OCL     -0.670000       15.9994           0
     13798 MEMB     105      POPS     O13B     OCL     -0.670000       15.9994           0
     13799 MEMB     105      POPS     C11      CTL2    -0.800000E-01   12.0110           0
     13800 MEMB     105      POPS     H11A     HAL2     0.900000E-01   1.00800           0
     13801 MEMB     105      POPS     H11B     HAL2     0.900000E-01   1.00800           0
     13802 MEMB     105      POPS     P        PL        1.50000       30.9740           0
     13803 MEMB     105      POPS     O13      O2L     -0.780000       15.9994           0
     13804 MEMB     105      POPS     O14      O2L     -0.780000       15.9994           0
     13805 MEMB     105      POPS     O12      OSLP    -0.570000       15.9994           0
     13806 MEMB     105      POPS     O11      OSLP    -0.570000       15.9994           0
     13807 MEMB     105      POPS     C1       CTL2    -0.800000E-01   12.0110           0
     13808 MEMB     105      POPS     HA       HAL2     0.900000E-01   1.00800           0
     13809 MEMB     105      POPS     HB       HAL2     0.900000E-01   1.00800           0
     13810 MEMB     105      POPS     C2       CTL1     0.170000       12.0110           0
     13811 MEMB     105      POPS     HS       HAL1     0.900000E-01   1.00800           0
     13812 MEMB     105      POPS     O21      OSL     -0.490000       15.9994           0
     13813 MEMB     105      POPS     C21      CL       0.900000       12.0110           0
     13814 MEMB     105      POPS     O22      OBL     -0.630000       15.9994           0
     13815 MEMB     105      POPS     C22      CTL2    -0.220000       12.0110           0
     13816 MEMB     105      POPS     H2R      HAL2     0.900000E-01   1.00800           0
     13817 MEMB     105      POPS     H2S      HAL2     0.900000E-01   1.00800           0
     13818 MEMB     105      POPS     C3       CTL2     0.800000E-01   12.0110           0
     13819 MEMB     105      POPS     HX       HAL2     0.900000E-01   1.00800           0
     13820 MEMB     105      POPS     HY       HAL2     0.900000E-01   1.00800           0
     13821 MEMB     105      POPS     O31      OSL     -0.490000       15.9994           0
     13822 MEMB     105      POPS     C31      CL       0.900000       12.0110           0
     13823 MEMB     105      POPS     O32      OBL     -0.630000       15.9994           0
     13824 MEMB     105      POPS     C32      CTL2    -0.220000       12.0110           0
     13825 MEMB     105      POPS     H2X      HAL2     0.900000E-01   1.00800           0
     13826 MEMB     105      POPS     H2Y      HAL2     0.900000E-01   1.00800           0
     13827 MEMB     105      POPS     C23      CTL2    -0.180000       12.0110           0
     13828 MEMB     105      POPS     H3R      HAL2     0.900000E-01   1.00800           0
     13829 MEMB     105      POPS     H3S      HAL2     0.900000E-01   1.00800           0
     13830 MEMB     105      POPS     C24      CTL2    -0.180000       12.0110           0
     13831 MEMB     105      POPS     H4R      HAL2     0.900000E-01   1.00800           0
     13832 MEMB     105      POPS     H4S      HAL2     0.900000E-01   1.00800           0
     13833 MEMB     105      POPS     C25      CTL2    -0.180000       12.0110           0
     13834 MEMB     105      POPS     H5R      HAL2     0.900000E-01   1.00800           0
     13835 MEMB     105      POPS     H5S      HAL2     0.900000E-01   1.00800           0
     13836 MEMB     105      POPS     C26      CTL2    -0.180000       12.0110           0
     13837 MEMB     105      POPS     H6R      HAL2     0.900000E-01   1.00800           0
     13838 MEMB     105      POPS     H6S      HAL2     0.900000E-01   1.00800           0
     13839 MEMB     105      POPS     C27      CTL2    -0.180000       12.0110           0
     13840 MEMB     105      POPS     H7R      HAL2     0.900000E-01   1.00800           0
     13841 MEMB     105      POPS     H7S      HAL2     0.900000E-01   1.00800           0
     13842 MEMB     105      POPS     C28      CTL2    -0.180000       12.0110           0
     13843 MEMB     105      POPS     H8R      HAL2     0.900000E-01   1.00800           0
     13844 MEMB     105      POPS     H8S      HAL2     0.900000E-01   1.00800           0
     13845 MEMB     105      POPS     C29      CEL1    -0.150000       12.0110           0
     13846 MEMB     105      POPS     H91      HEL1     0.150000       1.00800           0
     13847 MEMB     105      POPS     C210     CEL1    -0.150000       12.0110           0
     13848 MEMB     105      POPS     H101     HEL1     0.150000       1.00800           0
     13849 MEMB     105      POPS     C211     CTL2    -0.180000       12.0110           0
     13850 MEMB     105      POPS     H11R     HAL2     0.900000E-01   1.00800           0
     13851 MEMB     105      POPS     H11S     HAL2     0.900000E-01   1.00800           0
     13852 MEMB     105      POPS     C212     CTL2    -0.180000       12.0110           0
     13853 MEMB     105      POPS     H12R     HAL2     0.900000E-01   1.00800           0
     13854 MEMB     105      POPS     H12S     HAL2     0.900000E-01   1.00800           0
     13855 MEMB     105      POPS     C213     CTL2    -0.180000       12.0110           0
     13856 MEMB     105      POPS     H13R     HAL2     0.900000E-01   1.00800           0
     13857 MEMB     105      POPS     H13S     HAL2     0.900000E-01   1.00800           0
     13858 MEMB     105      POPS     C214     CTL2    -0.180000       12.0110           0
     13859 MEMB     105      POPS     H14R     HAL2     0.900000E-01   1.00800           0
     13860 MEMB     105      POPS     H14S     HAL2     0.900000E-01   1.00800           0
     13861 MEMB     105      POPS     C215     CTL2    -0.180000       12.0110           0
     13862 MEMB     105      POPS     H15R     HAL2     0.900000E-01   1.00800           0
     13863 MEMB     105      POPS     H15S     HAL2     0.900000E-01   1.00800           0
     13864 MEMB     105      POPS     C216     CTL2    -0.180000       12.0110           0
     13865 MEMB     105      POPS     H16R     HAL2     0.900000E-01   1.00800           0
     13866 MEMB     105      POPS     H16S     HAL2     0.900000E-01   1.00800           0
     13867 MEMB     105      POPS     C217     CTL2    -0.180000       12.0110           0
     13868 MEMB     105      POPS     H17R     HAL2     0.900000E-01   1.00800           0
     13869 MEMB     105      POPS     H17S     HAL2     0.900000E-01   1.00800           0
     13870 MEMB     105      POPS     C218     CTL3    -0.270000       12.0110           0
     13871 MEMB     105      POPS     H18R     HAL3     0.900000E-01   1.00800           0
     13872 MEMB     105      POPS     H18S     HAL3     0.900000E-01   1.00800           0
     13873 MEMB     105      POPS     H18T     HAL3     0.900000E-01   1.00800           0
     13874 MEMB     105      POPS     C33      CTL2    -0.180000       12.0110           0
     13875 MEMB     105      POPS     H3X      HAL2     0.900000E-01   1.00800           0
     13876 MEMB     105      POPS     H3Y      HAL2     0.900000E-01   1.00800           0
     13877 MEMB     105      POPS     C34      CTL2    -0.180000       12.0110           0
     13878 MEMB     105      POPS     H4X      HAL2     0.900000E-01   1.00800           0
     13879 MEMB     105      POPS     H4Y      HAL2     0.900000E-01   1.00800           0
     13880 MEMB     105      POPS     C35      CTL2    -0.180000       12.0110           0
     13881 MEMB     105      POPS     H5X      HAL2     0.900000E-01   1.00800           0
     13882 MEMB     105      POPS     H5Y      HAL2     0.900000E-01   1.00800           0
     13883 MEMB     105      POPS     C36      CTL2    -0.180000       12.0110           0
     13884 MEMB     105      POPS     H6X      HAL2     0.900000E-01   1.00800           0
     13885 MEMB     105      POPS     H6Y      HAL2     0.900000E-01   1.00800           0
     13886 MEMB     105      POPS     C37      CTL2    -0.180000       12.0110           0
     13887 MEMB     105      POPS     H7X      HAL2     0.900000E-01   1.00800           0
     13888 MEMB     105      POPS     H7Y      HAL2     0.900000E-01   1.00800           0
     13889 MEMB     105      POPS     C38      CTL2    -0.180000       12.0110           0
     13890 MEMB     105      POPS     H8X      HAL2     0.900000E-01   1.00800           0
     13891 MEMB     105      POPS     H8Y      HAL2     0.900000E-01   1.00800           0
     13892 MEMB     105      POPS     C39      CTL2    -0.180000       12.0110           0
     13893 MEMB     105      POPS     H9X      HAL2     0.900000E-01   1.00800           0
     13894 MEMB     105      POPS     H9Y      HAL2     0.900000E-01   1.00800           0
     13895 MEMB     105      POPS     C310     CTL2    -0.180000       12.0110           0
     13896 MEMB     105      POPS     H10X     HAL2     0.900000E-01   1.00800           0
     13897 MEMB     105      POPS     H10Y     HAL2     0.900000E-01   1.00800           0
     13898 MEMB     105      POPS     C311     CTL2    -0.180000       12.0110           0
     13899 MEMB     105      POPS     H11X     HAL2     0.900000E-01   1.00800           0
     13900 MEMB     105      POPS     H11Y     HAL2     0.900000E-01   1.00800           0
     13901 MEMB     105      POPS     C312     CTL2    -0.180000       12.0110           0
     13902 MEMB     105      POPS     H12X     HAL2     0.900000E-01   1.00800           0
     13903 MEMB     105      POPS     H12Y     HAL2     0.900000E-01   1.00800           0
     13904 MEMB     105      POPS     C313     CTL2    -0.180000       12.0110           0
     13905 MEMB     105      POPS     H13X     HAL2     0.900000E-01   1.00800           0
     13906 MEMB     105      POPS     H13Y     HAL2     0.900000E-01   1.00800           0
     13907 MEMB     105      POPS     C314     CTL2    -0.180000       12.0110           0
     13908 MEMB     105      POPS     H14X     HAL2     0.900000E-01   1.00800           0
     13909 MEMB     105      POPS     H14Y     HAL2     0.900000E-01   1.00800           0
     13910 MEMB     105      POPS     C315     CTL2    -0.180000       12.0110           0
     13911 MEMB     105      POPS     H15X     HAL2     0.900000E-01   1.00800           0
     13912 MEMB     105      POPS     H15Y     HAL2     0.900000E-01   1.00800           0
     13913 MEMB     105      POPS     C316     CTL3    -0.270000       12.0110           0
     13914 MEMB     105      POPS     H16X     HAL3     0.900000E-01   1.00800           0
     13915 MEMB     105      POPS     H16Y     HAL3     0.900000E-01   1.00800           0
     13916 MEMB     105      POPS     H16Z     HAL3     0.900000E-01   1.00800           0
     13917 MEMB     106      POPC     N        NTL     -0.600000       14.0070           0
     13918 MEMB     106      POPC     C12      CTL2    -0.100000       12.0110           0
     13919 MEMB     106      POPC     H12A     HL       0.250000       1.00800           0
     13920 MEMB     106      POPC     H12B     HL       0.250000       1.00800           0
     13921 MEMB     106      POPC     C13      CTL5    -0.350000       12.0110           0
     13922 MEMB     106      POPC     H13A     HL       0.250000       1.00800           0
     13923 MEMB     106      POPC     H13B     HL       0.250000       1.00800           0
     13924 MEMB     106      POPC     H13C     HL       0.250000       1.00800           0
     13925 MEMB     106      POPC     C14      CTL5    -0.350000       12.0110           0
     13926 MEMB     106      POPC     H14A     HL       0.250000       1.00800           0
     13927 MEMB     106      POPC     H14B     HL       0.250000       1.00800           0
     13928 MEMB     106      POPC     H14C     HL       0.250000       1.00800           0
     13929 MEMB     106      POPC     C15      CTL5    -0.350000       12.0110           0
     13930 MEMB     106      POPC     H15A     HL       0.250000       1.00800           0
     13931 MEMB     106      POPC     H15B     HL       0.250000       1.00800           0
     13932 MEMB     106      POPC     H15C     HL       0.250000       1.00800           0
     13933 MEMB     106      POPC     C11      CTL2    -0.800000E-01   12.0110           0
     13934 MEMB     106      POPC     H11A     HAL2     0.900000E-01   1.00800           0
     13935 MEMB     106      POPC     H11B     HAL2     0.900000E-01   1.00800           0
     13936 MEMB     106      POPC     P        PL        1.50000       30.9740           0
     13937 MEMB     106      POPC     O13      O2L     -0.780000       15.9994           0
     13938 MEMB     106      POPC     O14      O2L     -0.780000       15.9994           0
     13939 MEMB     106      POPC     O12      OSLP    -0.570000       15.9994           0
     13940 MEMB     106      POPC     O11      OSLP    -0.570000       15.9994           0
     13941 MEMB     106      POPC     C1       CTL2    -0.800000E-01   12.0110           0
     13942 MEMB     106      POPC     HA       HAL2     0.900000E-01   1.00800           0
     13943 MEMB     106      POPC     HB       HAL2     0.900000E-01   1.00800           0
     13944 MEMB     106      POPC     C2       CTL1     0.170000       12.0110           0
     13945 MEMB     106      POPC     HS       HAL1     0.900000E-01   1.00800           0
     13946 MEMB     106      POPC     O21      OSL     -0.490000       15.9994           0
     13947 MEMB     106      POPC     C21      CL       0.900000       12.0110           0
     13948 MEMB     106      POPC     O22      OBL     -0.630000       15.9994           0
     13949 MEMB     106      POPC     C22      CTL2    -0.220000       12.0110           0
     13950 MEMB     106      POPC     H2R      HAL2     0.900000E-01   1.00800           0
     13951 MEMB     106      POPC     H2S      HAL2     0.900000E-01   1.00800           0
     13952 MEMB     106      POPC     C3       CTL2     0.800000E-01   12.0110           0
     13953 MEMB     106      POPC     HX       HAL2     0.900000E-01   1.00800           0
     13954 MEMB     106      POPC     HY       HAL2     0.900000E-01   1.00800           0
     13955 MEMB     106      POPC     O31      OSL     -0.490000       15.9994           0
     13956 MEMB     106      POPC     C31      CL       0.900000       12.0110           0
     13957 MEMB     106      POPC     O32      OBL     -0.630000       15.9994           0
     13958 MEMB     106      POPC     C32      CTL2    -0.220000       12.0110           0
     13959 MEMB     106      POPC     H2X      HAL2     0.900000E-01   1.00800           0
     13960 MEMB     106      POPC     H2Y      HAL2     0.900000E-01   1.00800           0
     13961 MEMB     106      POPC     C23      CTL2    -0.180000       12.0110           0
     13962 MEMB     106      POPC     H3R      HAL2     0.900000E-01   1.00800           0
     13963 MEMB     106      POPC     H3S      HAL2     0.900000E-01   1.00800           0
     13964 MEMB     106      POPC     C24      CTL2    -0.180000       12.0110           0
     13965 MEMB     106      POPC     H4R      HAL2     0.900000E-01   1.00800           0
     13966 MEMB     106      POPC     H4S      HAL2     0.900000E-01   1.00800           0
     13967 MEMB     106      POPC     C25      CTL2    -0.180000       12.0110           0
     13968 MEMB     106      POPC     H5R      HAL2     0.900000E-01   1.00800           0
     13969 MEMB     106      POPC     H5S      HAL2     0.900000E-01   1.00800           0
     13970 MEMB     106      POPC     C26      CTL2    -0.180000       12.0110           0
     13971 MEMB     106      POPC     H6R      HAL2     0.900000E-01   1.00800           0
     13972 MEMB     106      POPC     H6S      HAL2     0.900000E-01   1.00800           0
     13973 MEMB     106      POPC     C27      CTL2    -0.180000       12.0110           0
     13974 MEMB     106      POPC     H7R      HAL2     0.900000E-01   1.00800           0
     13975 MEMB     106      POPC     H7S      HAL2     0.900000E-01   1.00800           0
     13976 MEMB     106      POPC     C28      CTL2    -0.180000       12.0110           0
     13977 MEMB     106      POPC     H8R      HAL2     0.900000E-01   1.00800           0
     13978 MEMB     106      POPC     H8S      HAL2     0.900000E-01   1.00800           0
     13979 MEMB     106      POPC     C29      CEL1    -0.150000       12.0110           0
     13980 MEMB     106      POPC     H91      HEL1     0.150000       1.00800           0
     13981 MEMB     106      POPC     C210     CEL1    -0.150000       12.0110           0
     13982 MEMB     106      POPC     H101     HEL1     0.150000       1.00800           0
     13983 MEMB     106      POPC     C211     CTL2    -0.180000       12.0110           0
     13984 MEMB     106      POPC     H11R     HAL2     0.900000E-01   1.00800           0
     13985 MEMB     106      POPC     H11S     HAL2     0.900000E-01   1.00800           0
     13986 MEMB     106      POPC     C212     CTL2    -0.180000       12.0110           0
     13987 MEMB     106      POPC     H12R     HAL2     0.900000E-01   1.00800           0
     13988 MEMB     106      POPC     H12S     HAL2     0.900000E-01   1.00800           0
     13989 MEMB     106      POPC     C213     CTL2    -0.180000       12.0110           0
     13990 MEMB     106      POPC     H13R     HAL2     0.900000E-01   1.00800           0
     13991 MEMB     106      POPC     H13S     HAL2     0.900000E-01   1.00800           0
     13992 MEMB     106      POPC     C214     CTL2    -0.180000       12.0110           0
     13993 MEMB     106      POPC     H14R     HAL2     0.900000E-01   1.00800           0
     13994 MEMB     106      POPC     H14S     HAL2     0.900000E-01   1.00800           0
     13995 MEMB     106      POPC     C215     CTL2    -0.180000       12.0110           0
     13996 MEMB     106      POPC     H15R     HAL2     0.900000E-01   1.00800           0
     13997 MEMB     106      POPC     H15S     HAL2     0.900000E-01   1.00800           0
     13998 MEMB     106      POPC     C216     CTL2    -0.180000       12.0110           0
     13999 MEMB     106      POPC     H16R     HAL2     0.900000E-01   1.00800           0
     14000 MEMB     106      POPC     H16S     HAL2     0.900000E-01   1.00800           0
     14001 MEMB     106      POPC     C217     CTL2    -0.180000       12.0110           0
     14002 MEMB     106      POPC     H17R     HAL2     0.900000E-01   1.00800           0
     14003 MEMB     106      POPC     H17S     HAL2     0.900000E-01   1.00800           0
     14004 MEMB     106      POPC     C218     CTL3    -0.270000       12.0110           0
     14005 MEMB     106      POPC     H18R     HAL3     0.900000E-01   1.00800           0
     14006 MEMB     106      POPC     H18S     HAL3     0.900000E-01   1.00800           0
     14007 MEMB     106      POPC     H18T     HAL3     0.900000E-01   1.00800           0
     14008 MEMB     106      POPC     C33      CTL2    -0.180000       12.0110           0
     14009 MEMB     106      POPC     H3X      HAL2     0.900000E-01   1.00800           0
     14010 MEMB     106      POPC     H3Y      HAL2     0.900000E-01   1.00800           0
     14011 MEMB     106      POPC     C34      CTL2    -0.180000       12.0110           0
     14012 MEMB     106      POPC     H4X      HAL2     0.900000E-01   1.00800           0
     14013 MEMB     106      POPC     H4Y      HAL2     0.900000E-01   1.00800           0
     14014 MEMB     106      POPC     C35      CTL2    -0.180000       12.0110           0
     14015 MEMB     106      POPC     H5X      HAL2     0.900000E-01   1.00800           0
     14016 MEMB     106      POPC     H5Y      HAL2     0.900000E-01   1.00800           0
     14017 MEMB     106      POPC     C36      CTL2    -0.180000       12.0110           0
     14018 MEMB     106      POPC     H6X      HAL2     0.900000E-01   1.00800           0
     14019 MEMB     106      POPC     H6Y      HAL2     0.900000E-01   1.00800           0
     14020 MEMB     106      POPC     C37      CTL2    -0.180000       12.0110           0
     14021 MEMB     106      POPC     H7X      HAL2     0.900000E-01   1.00800           0
     14022 MEMB     106      POPC     H7Y      HAL2     0.900000E-01   1.00800           0
     14023 MEMB     106      POPC     C38      CTL2    -0.180000       12.0110           0
     14024 MEMB     106      POPC     H8X      HAL2     0.900000E-01   1.00800           0
     14025 MEMB     106      POPC     H8Y      HAL2     0.900000E-01   1.00800           0
     14026 MEMB     106      POPC     C39      CTL2    -0.180000       12.0110           0
     14027 MEMB     106      POPC     H9X      HAL2     0.900000E-01   1.00800           0
     14028 MEMB     106      POPC     H9Y      HAL2     0.900000E-01   1.00800           0
     14029 MEMB     106      POPC     C310     CTL2    -0.180000       12.0110           0
     14030 MEMB     106      POPC     H10X     HAL2     0.900000E-01   1.00800           0
     14031 MEMB     106      POPC     H10Y     HAL2     0.900000E-01   1.00800           0
     14032 MEMB     106      POPC     C311     CTL2    -0.180000       12.0110           0
     14033 MEMB     106      POPC     H11X     HAL2     0.900000E-01   1.00800           0
     14034 MEMB     106      POPC     H11Y     HAL2     0.900000E-01   1.00800           0
     14035 MEMB     106      POPC     C312     CTL2    -0.180000       12.0110           0
     14036 MEMB     106      POPC     H12X     HAL2     0.900000E-01   1.00800           0
     14037 MEMB     106      POPC     H12Y     HAL2     0.900000E-01   1.00800           0
     14038 MEMB     106      POPC     C313     CTL2    -0.180000       12.0110           0
     14039 MEMB     106      POPC     H13X     HAL2     0.900000E-01   1.00800           0
     14040 MEMB     106      POPC     H13Y     HAL2     0.900000E-01   1.00800           0
     14041 MEMB     106      POPC     C314     CTL2    -0.180000       12.0110           0
     14042 MEMB     106      POPC     H14X     HAL2     0.900000E-01   1.00800           0
     14043 MEMB     106      POPC     H14Y     HAL2     0.900000E-01   1.00800           0
     14044 MEMB     106      POPC     C315     CTL2    -0.180000       12.0110           0
     14045 MEMB     106      POPC     H15X     HAL2     0.900000E-01   1.00800           0
     14046 MEMB     106      POPC     H15Y     HAL2     0.900000E-01   1.00800           0
     14047 MEMB     106      POPC     C316     CTL3    -0.270000       12.0110           0
     14048 MEMB     106      POPC     H16X     HAL3     0.900000E-01   1.00800           0
     14049 MEMB     106      POPC     H16Y     HAL3     0.900000E-01   1.00800           0
     14050 MEMB     106      POPC     H16Z     HAL3     0.900000E-01   1.00800           0
     14051 MEMB     107      POPC     N        NTL     -0.600000       14.0070           0
     14052 MEMB     107      POPC     C12      CTL2    -0.100000       12.0110           0
     14053 MEMB     107      POPC     H12A     HL       0.250000       1.00800           0
     14054 MEMB     107      POPC     H12B     HL       0.250000       1.00800           0
     14055 MEMB     107      POPC     C13      CTL5    -0.350000       12.0110           0
     14056 MEMB     107      POPC     H13A     HL       0.250000       1.00800           0
     14057 MEMB     107      POPC     H13B     HL       0.250000       1.00800           0
     14058 MEMB     107      POPC     H13C     HL       0.250000       1.00800           0
     14059 MEMB     107      POPC     C14      CTL5    -0.350000       12.0110           0
     14060 MEMB     107      POPC     H14A     HL       0.250000       1.00800           0
     14061 MEMB     107      POPC     H14B     HL       0.250000       1.00800           0
     14062 MEMB     107      POPC     H14C     HL       0.250000       1.00800           0
     14063 MEMB     107      POPC     C15      CTL5    -0.350000       12.0110           0
     14064 MEMB     107      POPC     H15A     HL       0.250000       1.00800           0
     14065 MEMB     107      POPC     H15B     HL       0.250000       1.00800           0
     14066 MEMB     107      POPC     H15C     HL       0.250000       1.00800           0
     14067 MEMB     107      POPC     C11      CTL2    -0.800000E-01   12.0110           0
     14068 MEMB     107      POPC     H11A     HAL2     0.900000E-01   1.00800           0
     14069 MEMB     107      POPC     H11B     HAL2     0.900000E-01   1.00800           0
     14070 MEMB     107      POPC     P        PL        1.50000       30.9740           0
     14071 MEMB     107      POPC     O13      O2L     -0.780000       15.9994           0
     14072 MEMB     107      POPC     O14      O2L     -0.780000       15.9994           0
     14073 MEMB     107      POPC     O12      OSLP    -0.570000       15.9994           0
     14074 MEMB     107      POPC     O11      OSLP    -0.570000       15.9994           0
     14075 MEMB     107      POPC     C1       CTL2    -0.800000E-01   12.0110           0
     14076 MEMB     107      POPC     HA       HAL2     0.900000E-01   1.00800           0
     14077 MEMB     107      POPC     HB       HAL2     0.900000E-01   1.00800           0
     14078 MEMB     107      POPC     C2       CTL1     0.170000       12.0110           0
     14079 MEMB     107      POPC     HS       HAL1     0.900000E-01   1.00800           0
     14080 MEMB     107      POPC     O21      OSL     -0.490000       15.9994           0
     14081 MEMB     107      POPC     C21      CL       0.900000       12.0110           0
     14082 MEMB     107      POPC     O22      OBL     -0.630000       15.9994           0
     14083 MEMB     107      POPC     C22      CTL2    -0.220000       12.0110           0
     14084 MEMB     107      POPC     H2R      HAL2     0.900000E-01   1.00800           0
     14085 MEMB     107      POPC     H2S      HAL2     0.900000E-01   1.00800           0
     14086 MEMB     107      POPC     C3       CTL2     0.800000E-01   12.0110           0
     14087 MEMB     107      POPC     HX       HAL2     0.900000E-01   1.00800           0
     14088 MEMB     107      POPC     HY       HAL2     0.900000E-01   1.00800           0
     14089 MEMB     107      POPC     O31      OSL     -0.490000       15.9994           0
     14090 MEMB     107      POPC     C31      CL       0.900000       12.0110           0
     14091 MEMB     107      POPC     O32      OBL     -0.630000       15.9994           0
     14092 MEMB     107      POPC     C32      CTL2    -0.220000       12.0110           0
     14093 MEMB     107      POPC     H2X      HAL2     0.900000E-01   1.00800           0
     14094 MEMB     107      POPC     H2Y      HAL2     0.900000E-01   1.00800           0
     14095 MEMB     107      POPC     C23      CTL2    -0.180000       12.0110           0
     14096 MEMB     107      POPC     H3R      HAL2     0.900000E-01   1.00800           0
     14097 MEMB     107      POPC     H3S      HAL2     0.900000E-01   1.00800           0
     14098 MEMB     107      POPC     C24      CTL2    -0.180000       12.0110           0
     14099 MEMB     107      POPC     H4R      HAL2     0.900000E-01   1.00800           0
     14100 MEMB     107      POPC     H4S      HAL2     0.900000E-01   1.00800           0
     14101 MEMB     107      POPC     C25      CTL2    -0.180000       12.0110           0
     14102 MEMB     107      POPC     H5R      HAL2     0.900000E-01   1.00800           0
     14103 MEMB     107      POPC     H5S      HAL2     0.900000E-01   1.00800           0
     14104 MEMB     107      POPC     C26      CTL2    -0.180000       12.0110           0
     14105 MEMB     107      POPC     H6R      HAL2     0.900000E-01   1.00800           0
     14106 MEMB     107      POPC     H6S      HAL2     0.900000E-01   1.00800           0
     14107 MEMB     107      POPC     C27      CTL2    -0.180000       12.0110           0
     14108 MEMB     107      POPC     H7R      HAL2     0.900000E-01   1.00800           0
     14109 MEMB     107      POPC     H7S      HAL2     0.900000E-01   1.00800           0
     14110 MEMB     107      POPC     C28      CTL2    -0.180000       12.0110           0
     14111 MEMB     107      POPC     H8R      HAL2     0.900000E-01   1.00800           0
     14112 MEMB     107      POPC     H8S      HAL2     0.900000E-01   1.00800           0
     14113 MEMB     107      POPC     C29      CEL1    -0.150000       12.0110           0
     14114 MEMB     107      POPC     H91      HEL1     0.150000       1.00800           0
     14115 MEMB     107      POPC     C210     CEL1    -0.150000       12.0110           0
     14116 MEMB     107      POPC     H101     HEL1     0.150000       1.00800           0
     14117 MEMB     107      POPC     C211     CTL2    -0.180000       12.0110           0
     14118 MEMB     107      POPC     H11R     HAL2     0.900000E-01   1.00800           0
     14119 MEMB     107      POPC     H11S     HAL2     0.900000E-01   1.00800           0
     14120 MEMB     107      POPC     C212     CTL2    -0.180000       12.0110           0
     14121 MEMB     107      POPC     H12R     HAL2     0.900000E-01   1.00800           0
     14122 MEMB     107      POPC     H12S     HAL2     0.900000E-01   1.00800           0
     14123 MEMB     107      POPC     C213     CTL2    -0.180000       12.0110           0
     14124 MEMB     107      POPC     H13R     HAL2     0.900000E-01   1.00800           0
     14125 MEMB     107      POPC     H13S     HAL2     0.900000E-01   1.00800           0
     14126 MEMB     107      POPC     C214     CTL2    -0.180000       12.0110           0
     14127 MEMB     107      POPC     H14R     HAL2     0.900000E-01   1.00800           0
     14128 MEMB     107      POPC     H14S     HAL2     0.900000E-01   1.00800           0
     14129 MEMB     107      POPC     C215     CTL2    -0.180000       12.0110           0
     14130 MEMB     107      POPC     H15R     HAL2     0.900000E-01   1.00800           0
     14131 MEMB     107      POPC     H15S     HAL2     0.900000E-01   1.00800           0
     14132 MEMB     107      POPC     C216     CTL2    -0.180000       12.0110           0
     14133 MEMB     107      POPC     H16R     HAL2     0.900000E-01   1.00800           0
     14134 MEMB     107      POPC     H16S     HAL2     0.900000E-01   1.00800           0
     14135 MEMB     107      POPC     C217     CTL2    -0.180000       12.0110           0
     14136 MEMB     107      POPC     H17R     HAL2     0.900000E-01   1.00800           0
     14137 MEMB     107      POPC     H17S     HAL2     0.900000E-01   1.00800           0
     14138 MEMB     107      POPC     C218     CTL3    -0.270000       12.0110           0
     14139 MEMB     107      POPC     H18R     HAL3     0.900000E-01   1.00800           0
     14140 MEMB     107      POPC     H18S     HAL3     0.900000E-01   1.00800           0
     14141 MEMB     107      POPC     H18T     HAL3     0.900000E-01   1.00800           0
     14142 MEMB     107      POPC     C33      CTL2    -0.180000       12.0110           0
     14143 MEMB     107      POPC     H3X      HAL2     0.900000E-01   1.00800           0
     14144 MEMB     107      POPC     H3Y      HAL2     0.900000E-01   1.00800           0
     14145 MEMB     107      POPC     C34      CTL2    -0.180000       12.0110           0
     14146 MEMB     107      POPC     H4X      HAL2     0.900000E-01   1.00800           0
     14147 MEMB     107      POPC     H4Y      HAL2     0.900000E-01   1.00800           0
     14148 MEMB     107      POPC     C35      CTL2    -0.180000       12.0110           0
     14149 MEMB     107      POPC     H5X      HAL2     0.900000E-01   1.00800           0
     14150 MEMB     107      POPC     H5Y      HAL2     0.900000E-01   1.00800           0
     14151 MEMB     107      POPC     C36      CTL2    -0.180000       12.0110           0
     14152 MEMB     107      POPC     H6X      HAL2     0.900000E-01   1.00800           0
     14153 MEMB     107      POPC     H6Y      HAL2     0.900000E-01   1.00800           0
     14154 MEMB     107      POPC     C37      CTL2    -0.180000       12.0110           0
     14155 MEMB     107      POPC     H7X      HAL2     0.900000E-01   1.00800           0
     14156 MEMB     107      POPC     H7Y      HAL2     0.900000E-01   1.00800           0
     14157 MEMB     107      POPC     C38      CTL2    -0.180000       12.0110           0
     14158 MEMB     107      POPC     H8X      HAL2     0.900000E-01   1.00800           0
     14159 MEMB     107      POPC     H8Y      HAL2     0.900000E-01   1.00800           0
     14160 MEMB     107      POPC     C39      CTL2    -0.180000       12.0110           0
     14161 MEMB     107      POPC     H9X      HAL2     0.900000E-01   1.00800           0
     14162 MEMB     107      POPC     H9Y      HAL2     0.900000E-01   1.00800           0
     14163 MEMB     107      POPC     C310     CTL2    -0.180000       12.0110           0
     14164 MEMB     107      POPC     H10X     HAL2     0.900000E-01   1.00800           0
     14165 MEMB     107      POPC     H10Y     HAL2     0.900000E-01   1.00800           0
     14166 MEMB     107      POPC     C311     CTL2    -0.180000       12.0110           0
     14167 MEMB     107      POPC     H11X     HAL2     0.900000E-01   1.00800           0
     14168 MEMB     107      POPC     H11Y     HAL2     0.900000E-01   1.00800           0
     14169 MEMB     107      POPC     C312     CTL2    -0.180000       12.0110           0
     14170 MEMB     107      POPC     H12X     HAL2     0.900000E-01   1.00800           0
     14171 MEMB     107      POPC     H12Y     HAL2     0.900000E-01   1.00800           0
     14172 MEMB     107      POPC     C313     CTL2    -0.180000       12.0110           0
     14173 MEMB     107      POPC     H13X     HAL2     0.900000E-01   1.00800           0
     14174 MEMB     107      POPC     H13Y     HAL2     0.900000E-01   1.00800           0
     14175 MEMB     107      POPC     C314     CTL2    -0.180000       12.0110           0
     14176 MEMB     107      POPC     H14X     HAL2     0.900000E-01   1.00800           0
     14177 MEMB     107      POPC     H14Y     HAL2     0.900000E-01   1.00800           0
     14178 MEMB     107      POPC     C315     CTL2    -0.180000       12.0110           0
     14179 MEMB     107      POPC     H15X     HAL2     0.900000E-01   1.00800           0
     14180 MEMB     107      POPC     H15Y     HAL2     0.900000E-01   1.00800           0
     14181 MEMB     107      POPC     C316     CTL3    -0.270000       12.0110           0
     14182 MEMB     107      POPC     H16X     HAL3     0.900000E-01   1.00800           0
     14183 MEMB     107      POPC     H16Y     HAL3     0.900000E-01   1.00800           0
     14184 MEMB     107      POPC     H16Z     HAL3     0.900000E-01   1.00800           0
     14185 MEMB     108      POPS     N        NH3L    -0.300000       14.0070           0
     14186 MEMB     108      POPS     HN1      HCL      0.330000       1.00800           0
     14187 MEMB     108      POPS     HN2      HCL      0.330000       1.00800           0
     14188 MEMB     108      POPS     HN3      HCL      0.330000       1.00800           0
     14189 MEMB     108      POPS     C12      CTL1     0.210000       12.0110           0
     14190 MEMB     108      POPS     H12A     HBL      0.100000       1.00800           0
     14191 MEMB     108      POPS     C13      CCL      0.340000       12.0110           0
     14192 MEMB     108      POPS     O13A     OCL     -0.670000       15.9994           0
     14193 MEMB     108      POPS     O13B     OCL     -0.670000       15.9994           0
     14194 MEMB     108      POPS     C11      CTL2    -0.800000E-01   12.0110           0
     14195 MEMB     108      POPS     H11A     HAL2     0.900000E-01   1.00800           0
     14196 MEMB     108      POPS     H11B     HAL2     0.900000E-01   1.00800           0
     14197 MEMB     108      POPS     P        PL        1.50000       30.9740           0
     14198 MEMB     108      POPS     O13      O2L     -0.780000       15.9994           0
     14199 MEMB     108      POPS     O14      O2L     -0.780000       15.9994           0
     14200 MEMB     108      POPS     O12      OSLP    -0.570000       15.9994           0
     14201 MEMB     108      POPS     O11      OSLP    -0.570000       15.9994           0
     14202 MEMB     108      POPS     C1       CTL2    -0.800000E-01   12.0110           0
     14203 MEMB     108      POPS     HA       HAL2     0.900000E-01   1.00800           0
     14204 MEMB     108      POPS     HB       HAL2     0.900000E-01   1.00800           0
     14205 MEMB     108      POPS     C2       CTL1     0.170000       12.0110           0
     14206 MEMB     108      POPS     HS       HAL1     0.900000E-01   1.00800           0
     14207 MEMB     108      POPS     O21      OSL     -0.490000       15.9994           0
     14208 MEMB     108      POPS     C21      CL       0.900000       12.0110           0
     14209 MEMB     108      POPS     O22      OBL     -0.630000       15.9994           0
     14210 MEMB     108      POPS     C22      CTL2    -0.220000       12.0110           0
     14211 MEMB     108      POPS     H2R      HAL2     0.900000E-01   1.00800           0
     14212 MEMB     108      POPS     H2S      HAL2     0.900000E-01   1.00800           0
     14213 MEMB     108      POPS     C3       CTL2     0.800000E-01   12.0110           0
     14214 MEMB     108      POPS     HX       HAL2     0.900000E-01   1.00800           0
     14215 MEMB     108      POPS     HY       HAL2     0.900000E-01   1.00800           0
     14216 MEMB     108      POPS     O31      OSL     -0.490000       15.9994           0
     14217 MEMB     108      POPS     C31      CL       0.900000       12.0110           0
     14218 MEMB     108      POPS     O32      OBL     -0.630000       15.9994           0
     14219 MEMB     108      POPS     C32      CTL2    -0.220000       12.0110           0
     14220 MEMB     108      POPS     H2X      HAL2     0.900000E-01   1.00800           0
     14221 MEMB     108      POPS     H2Y      HAL2     0.900000E-01   1.00800           0
     14222 MEMB     108      POPS     C23      CTL2    -0.180000       12.0110           0
     14223 MEMB     108      POPS     H3R      HAL2     0.900000E-01   1.00800           0
     14224 MEMB     108      POPS     H3S      HAL2     0.900000E-01   1.00800           0
     14225 MEMB     108      POPS     C24      CTL2    -0.180000       12.0110           0
     14226 MEMB     108      POPS     H4R      HAL2     0.900000E-01   1.00800           0
     14227 MEMB     108      POPS     H4S      HAL2     0.900000E-01   1.00800           0
     14228 MEMB     108      POPS     C25      CTL2    -0.180000       12.0110           0
     14229 MEMB     108      POPS     H5R      HAL2     0.900000E-01   1.00800           0
     14230 MEMB     108      POPS     H5S      HAL2     0.900000E-01   1.00800           0
     14231 MEMB     108      POPS     C26      CTL2    -0.180000       12.0110           0
     14232 MEMB     108      POPS     H6R      HAL2     0.900000E-01   1.00800           0
     14233 MEMB     108      POPS     H6S      HAL2     0.900000E-01   1.00800           0
     14234 MEMB     108      POPS     C27      CTL2    -0.180000       12.0110           0
     14235 MEMB     108      POPS     H7R      HAL2     0.900000E-01   1.00800           0
     14236 MEMB     108      POPS     H7S      HAL2     0.900000E-01   1.00800           0
     14237 MEMB     108      POPS     C28      CTL2    -0.180000       12.0110           0
     14238 MEMB     108      POPS     H8R      HAL2     0.900000E-01   1.00800           0
     14239 MEMB     108      POPS     H8S      HAL2     0.900000E-01   1.00800           0
     14240 MEMB     108      POPS     C29      CEL1    -0.150000       12.0110           0
     14241 MEMB     108      POPS     H91      HEL1     0.150000       1.00800           0
     14242 MEMB     108      POPS     C210     CEL1    -0.150000       12.0110           0
     14243 MEMB     108      POPS     H101     HEL1     0.150000       1.00800           0
     14244 MEMB     108      POPS     C211     CTL2    -0.180000       12.0110           0
     14245 MEMB     108      POPS     H11R     HAL2     0.900000E-01   1.00800           0
     14246 MEMB     108      POPS     H11S     HAL2     0.900000E-01   1.00800           0
     14247 MEMB     108      POPS     C212     CTL2    -0.180000       12.0110           0
     14248 MEMB     108      POPS     H12R     HAL2     0.900000E-01   1.00800           0
     14249 MEMB     108      POPS     H12S     HAL2     0.900000E-01   1.00800           0
     14250 MEMB     108      POPS     C213     CTL2    -0.180000       12.0110           0
     14251 MEMB     108      POPS     H13R     HAL2     0.900000E-01   1.00800           0
     14252 MEMB     108      POPS     H13S     HAL2     0.900000E-01   1.00800           0
     14253 MEMB     108      POPS     C214     CTL2    -0.180000       12.0110           0
     14254 MEMB     108      POPS     H14R     HAL2     0.900000E-01   1.00800           0
     14255 MEMB     108      POPS     H14S     HAL2     0.900000E-01   1.00800           0
     14256 MEMB     108      POPS     C215     CTL2    -0.180000       12.0110           0
     14257 MEMB     108      POPS     H15R     HAL2     0.900000E-01   1.00800           0
     14258 MEMB     108      POPS     H15S     HAL2     0.900000E-01   1.00800           0
     14259 MEMB     108      POPS     C216     CTL2    -0.180000       12.0110           0
     14260 MEMB     108      POPS     H16R     HAL2     0.900000E-01   1.00800           0
     14261 MEMB     108      POPS     H16S     HAL2     0.900000E-01   1.00800           0
     14262 MEMB     108      POPS     C217     CTL2    -0.180000       12.0110           0
     14263 MEMB     108      POPS     H17R     HAL2     0.900000E-01   1.00800           0
     14264 MEMB     108      POPS     H17S     HAL2     0.900000E-01   1.00800           0
     14265 MEMB     108      POPS     C218     CTL3    -0.270000       12.0110           0
     14266 MEMB     108      POPS     H18R     HAL3     0.900000E-01   1.00800           0
     14267 MEMB     108      POPS     H18S     HAL3     0.900000E-01   1.00800           0
     14268 MEMB     108      POPS     H18T     HAL3     0.900000E-01   1.00800           0
     14269 MEMB     108      POPS     C33      CTL2    -0.180000       12.0110           0
     14270 MEMB     108      POPS     H3X      HAL2     0.900000E-01   1.00800           0
     14271 MEMB     108      POPS     H3Y      HAL2     0.900000E-01   1.00800           0
     14272 MEMB     108      POPS     C34      CTL2    -0.180000       12.0110           0
     14273 MEMB     108      POPS     H4X      HAL2     0.900000E-01   1.00800           0
     14274 MEMB     108      POPS     H4Y      HAL2     0.900000E-01   1.00800           0
     14275 MEMB     108      POPS     C35      CTL2    -0.180000       12.0110           0
     14276 MEMB     108      POPS     H5X      HAL2     0.900000E-01   1.00800           0
     14277 MEMB     108      POPS     H5Y      HAL2     0.900000E-01   1.00800           0
     14278 MEMB     108      POPS     C36      CTL2    -0.180000       12.0110           0
     14279 MEMB     108      POPS     H6X      HAL2     0.900000E-01   1.00800           0
     14280 MEMB     108      POPS     H6Y      HAL2     0.900000E-01   1.00800           0
     14281 MEMB     108      POPS     C37      CTL2    -0.180000       12.0110           0
     14282 MEMB     108      POPS     H7X      HAL2     0.900000E-01   1.00800           0
     14283 MEMB     108      POPS     H7Y      HAL2     0.900000E-01   1.00800           0
     14284 MEMB     108      POPS     C38      CTL2    -0.180000       12.0110           0
     14285 MEMB     108      POPS     H8X      HAL2     0.900000E-01   1.00800           0
     14286 MEMB     108      POPS     H8Y      HAL2     0.900000E-01   1.00800           0
     14287 MEMB     108      POPS     C39      CTL2    -0.180000       12.0110           0
     14288 MEMB     108      POPS     H9X      HAL2     0.900000E-01   1.00800           0
     14289 MEMB     108      POPS     H9Y      HAL2     0.900000E-01   1.00800           0
     14290 MEMB     108      POPS     C310     CTL2    -0.180000       12.0110           0
     14291 MEMB     108      POPS     H10X     HAL2     0.900000E-01   1.00800           0
     14292 MEMB     108      POPS     H10Y     HAL2     0.900000E-01   1.00800           0
     14293 MEMB     108      POPS     C311     CTL2    -0.180000       12.0110           0
     14294 MEMB     108      POPS     H11X     HAL2     0.900000E-01   1.00800           0
     14295 MEMB     108      POPS     H11Y     HAL2     0.900000E-01   1.00800           0
     14296 MEMB     108      POPS     C312     CTL2    -0.180000       12.0110           0
     14297 MEMB     108      POPS     H12X     HAL2     0.900000E-01   1.00800           0
     14298 MEMB     108      POPS     H12Y     HAL2     0.900000E-01   1.00800           0
     14299 MEMB     108      POPS     C313     CTL2    -0.180000       12.0110           0
     14300 MEMB     108      POPS     H13X     HAL2     0.900000E-01   1.00800           0
     14301 MEMB     108      POPS     H13Y     HAL2     0.900000E-01   1.00800           0
     14302 MEMB     108      POPS     C314     CTL2    -0.180000       12.0110           0
     14303 MEMB     108      POPS     H14X     HAL2     0.900000E-01   1.00800           0
     14304 MEMB     108      POPS     H14Y     HAL2     0.900000E-01   1.00800           0
     14305 MEMB     108      POPS     C315     CTL2    -0.180000       12.0110           0
     14306 MEMB     108      POPS     H15X     HAL2     0.900000E-01   1.00800           0
     14307 MEMB     108      POPS     H15Y     HAL2     0.900000E-01   1.00800           0
     14308 MEMB     108      POPS     C316     CTL3    -0.270000       12.0110           0
     14309 MEMB     108      POPS     H16X     HAL3     0.900000E-01   1.00800           0
     14310 MEMB     108      POPS     H16Y     HAL3     0.900000E-01   1.00800           0
     14311 MEMB     108      POPS     H16Z     HAL3     0.900000E-01   1.00800           0
     14312 MEMB     109      POPC     N        NTL     -0.600000       14.0070           0
     14313 MEMB     109      POPC     C12      CTL2    -0.100000       12.0110           0
     14314 MEMB     109      POPC     H12A     HL       0.250000       1.00800           0
     14315 MEMB     109      POPC     H12B     HL       0.250000       1.00800           0
     14316 MEMB     109      POPC     C13      CTL5    -0.350000       12.0110           0
     14317 MEMB     109      POPC     H13A     HL       0.250000       1.00800           0
     14318 MEMB     109      POPC     H13B     HL       0.250000       1.00800           0
     14319 MEMB     109      POPC     H13C     HL       0.250000       1.00800           0
     14320 MEMB     109      POPC     C14      CTL5    -0.350000       12.0110           0
     14321 MEMB     109      POPC     H14A     HL       0.250000       1.00800           0
     14322 MEMB     109      POPC     H14B     HL       0.250000       1.00800           0
     14323 MEMB     109      POPC     H14C     HL       0.250000       1.00800           0
     14324 MEMB     109      POPC     C15      CTL5    -0.350000       12.0110           0
     14325 MEMB     109      POPC     H15A     HL       0.250000       1.00800           0
     14326 MEMB     109      POPC     H15B     HL       0.250000       1.00800           0
     14327 MEMB     109      POPC     H15C     HL       0.250000       1.00800           0
     14328 MEMB     109      POPC     C11      CTL2    -0.800000E-01   12.0110           0
     14329 MEMB     109      POPC     H11A     HAL2     0.900000E-01   1.00800           0
     14330 MEMB     109      POPC     H11B     HAL2     0.900000E-01   1.00800           0
     14331 MEMB     109      POPC     P        PL        1.50000       30.9740           0
     14332 MEMB     109      POPC     O13      O2L     -0.780000       15.9994           0
     14333 MEMB     109      POPC     O14      O2L     -0.780000       15.9994           0
     14334 MEMB     109      POPC     O12      OSLP    -0.570000       15.9994           0
     14335 MEMB     109      POPC     O11      OSLP    -0.570000       15.9994           0
     14336 MEMB     109      POPC     C1       CTL2    -0.800000E-01   12.0110           0
     14337 MEMB     109      POPC     HA       HAL2     0.900000E-01   1.00800           0
     14338 MEMB     109      POPC     HB       HAL2     0.900000E-01   1.00800           0
     14339 MEMB     109      POPC     C2       CTL1     0.170000       12.0110           0
     14340 MEMB     109      POPC     HS       HAL1     0.900000E-01   1.00800           0
     14341 MEMB     109      POPC     O21      OSL     -0.490000       15.9994           0
     14342 MEMB     109      POPC     C21      CL       0.900000       12.0110           0
     14343 MEMB     109      POPC     O22      OBL     -0.630000       15.9994           0
     14344 MEMB     109      POPC     C22      CTL2    -0.220000       12.0110           0
     14345 MEMB     109      POPC     H2R      HAL2     0.900000E-01   1.00800           0
     14346 MEMB     109      POPC     H2S      HAL2     0.900000E-01   1.00800           0
     14347 MEMB     109      POPC     C3       CTL2     0.800000E-01   12.0110           0
     14348 MEMB     109      POPC     HX       HAL2     0.900000E-01   1.00800           0
     14349 MEMB     109      POPC     HY       HAL2     0.900000E-01   1.00800           0
     14350 MEMB     109      POPC     O31      OSL     -0.490000       15.9994           0
     14351 MEMB     109      POPC     C31      CL       0.900000       12.0110           0
     14352 MEMB     109      POPC     O32      OBL     -0.630000       15.9994           0
     14353 MEMB     109      POPC     C32      CTL2    -0.220000       12.0110           0
     14354 MEMB     109      POPC     H2X      HAL2     0.900000E-01   1.00800           0
     14355 MEMB     109      POPC     H2Y      HAL2     0.900000E-01   1.00800           0
     14356 MEMB     109      POPC     C23      CTL2    -0.180000       12.0110           0
     14357 MEMB     109      POPC     H3R      HAL2     0.900000E-01   1.00800           0
     14358 MEMB     109      POPC     H3S      HAL2     0.900000E-01   1.00800           0
     14359 MEMB     109      POPC     C24      CTL2    -0.180000       12.0110           0
     14360 MEMB     109      POPC     H4R      HAL2     0.900000E-01   1.00800           0
     14361 MEMB     109      POPC     H4S      HAL2     0.900000E-01   1.00800           0
     14362 MEMB     109      POPC     C25      CTL2    -0.180000       12.0110           0
     14363 MEMB     109      POPC     H5R      HAL2     0.900000E-01   1.00800           0
     14364 MEMB     109      POPC     H5S      HAL2     0.900000E-01   1.00800           0
     14365 MEMB     109      POPC     C26      CTL2    -0.180000       12.0110           0
     14366 MEMB     109      POPC     H6R      HAL2     0.900000E-01   1.00800           0
     14367 MEMB     109      POPC     H6S      HAL2     0.900000E-01   1.00800           0
     14368 MEMB     109      POPC     C27      CTL2    -0.180000       12.0110           0
     14369 MEMB     109      POPC     H7R      HAL2     0.900000E-01   1.00800           0
     14370 MEMB     109      POPC     H7S      HAL2     0.900000E-01   1.00800           0
     14371 MEMB     109      POPC     C28      CTL2    -0.180000       12.0110           0
     14372 MEMB     109      POPC     H8R      HAL2     0.900000E-01   1.00800           0
     14373 MEMB     109      POPC     H8S      HAL2     0.900000E-01   1.00800           0
     14374 MEMB     109      POPC     C29      CEL1    -0.150000       12.0110           0
     14375 MEMB     109      POPC     H91      HEL1     0.150000       1.00800           0
     14376 MEMB     109      POPC     C210     CEL1    -0.150000       12.0110           0
     14377 MEMB     109      POPC     H101     HEL1     0.150000       1.00800           0
     14378 MEMB     109      POPC     C211     CTL2    -0.180000       12.0110           0
     14379 MEMB     109      POPC     H11R     HAL2     0.900000E-01   1.00800           0
     14380 MEMB     109      POPC     H11S     HAL2     0.900000E-01   1.00800           0
     14381 MEMB     109      POPC     C212     CTL2    -0.180000       12.0110           0
     14382 MEMB     109      POPC     H12R     HAL2     0.900000E-01   1.00800           0
     14383 MEMB     109      POPC     H12S     HAL2     0.900000E-01   1.00800           0
     14384 MEMB     109      POPC     C213     CTL2    -0.180000       12.0110           0
     14385 MEMB     109      POPC     H13R     HAL2     0.900000E-01   1.00800           0
     14386 MEMB     109      POPC     H13S     HAL2     0.900000E-01   1.00800           0
     14387 MEMB     109      POPC     C214     CTL2    -0.180000       12.0110           0
     14388 MEMB     109      POPC     H14R     HAL2     0.900000E-01   1.00800           0
     14389 MEMB     109      POPC     H14S     HAL2     0.900000E-01   1.00800           0
     14390 MEMB     109      POPC     C215     CTL2    -0.180000       12.0110           0
     14391 MEMB     109      POPC     H15R     HAL2     0.900000E-01   1.00800           0
     14392 MEMB     109      POPC     H15S     HAL2     0.900000E-01   1.00800           0
     14393 MEMB     109      POPC     C216     CTL2    -0.180000       12.0110           0
     14394 MEMB     109      POPC     H16R     HAL2     0.900000E-01   1.00800           0
     14395 MEMB     109      POPC     H16S     HAL2     0.900000E-01   1.00800           0
     14396 MEMB     109      POPC     C217     CTL2    -0.180000       12.0110           0
     14397 MEMB     109      POPC     H17R     HAL2     0.900000E-01   1.00800           0
     14398 MEMB     109      POPC     H17S     HAL2     0.900000E-01   1.00800           0
     14399 MEMB     109      POPC     C218     CTL3    -0.270000       12.0110           0
     14400 MEMB     109      POPC     H18R     HAL3     0.900000E-01   1.00800           0
     14401 MEMB     109      POPC     H18S     HAL3     0.900000E-01   1.00800           0
     14402 MEMB     109      POPC     H18T     HAL3     0.900000E-01   1.00800           0
     14403 MEMB     109      POPC     C33      CTL2    -0.180000       12.0110           0
     14404 MEMB     109      POPC     H3X      HAL2     0.900000E-01   1.00800           0
     14405 MEMB     109      POPC     H3Y      HAL2     0.900000E-01   1.00800           0
     14406 MEMB     109      POPC     C34      CTL2    -0.180000       12.0110           0
     14407 MEMB     109      POPC     H4X      HAL2     0.900000E-01   1.00800           0
     14408 MEMB     109      POPC     H4Y      HAL2     0.900000E-01   1.00800           0
     14409 MEMB     109      POPC     C35      CTL2    -0.180000       12.0110           0
     14410 MEMB     109      POPC     H5X      HAL2     0.900000E-01   1.00800           0
     14411 MEMB     109      POPC     H5Y      HAL2     0.900000E-01   1.00800           0
     14412 MEMB     109      POPC     C36      CTL2    -0.180000       12.0110           0
     14413 MEMB     109      POPC     H6X      HAL2     0.900000E-01   1.00800           0
     14414 MEMB     109      POPC     H6Y      HAL2     0.900000E-01   1.00800           0
     14415 MEMB     109      POPC     C37      CTL2    -0.180000       12.0110           0
     14416 MEMB     109      POPC     H7X      HAL2     0.900000E-01   1.00800           0
     14417 MEMB     109      POPC     H7Y      HAL2     0.900000E-01   1.00800           0
     14418 MEMB     109      POPC     C38      CTL2    -0.180000       12.0110           0
     14419 MEMB     109      POPC     H8X      HAL2     0.900000E-01   1.00800           0
     14420 MEMB     109      POPC     H8Y      HAL2     0.900000E-01   1.00800           0
     14421 MEMB     109      POPC     C39      CTL2    -0.180000       12.0110           0
     14422 MEMB     109      POPC     H9X      HAL2     0.900000E-01   1.00800           0
     14423 MEMB     109      POPC     H9Y      HAL2     0.900000E-01   1.00800           0
     14424 MEMB     109      POPC     C310     CTL2    -0.180000       12.0110           0
     14425 MEMB     109      POPC     H10X     HAL2     0.900000E-01   1.00800           0
     14426 MEMB     109      POPC     H10Y     HAL2     0.900000E-01   1.00800           0
     14427 MEMB     109      POPC     C311     CTL2    -0.180000       12.0110           0
     14428 MEMB     109      POPC     H11X     HAL2     0.900000E-01   1.00800           0
     14429 MEMB     109      POPC     H11Y     HAL2     0.900000E-01   1.00800           0
     14430 MEMB     109      POPC     C312     CTL2    -0.180000       12.0110           0
     14431 MEMB     109      POPC     H12X     HAL2     0.900000E-01   1.00800           0
     14432 MEMB     109      POPC     H12Y     HAL2     0.900000E-01   1.00800           0
     14433 MEMB     109      POPC     C313     CTL2    -0.180000       12.0110           0
     14434 MEMB     109      POPC     H13X     HAL2     0.900000E-01   1.00800           0
     14435 MEMB     109      POPC     H13Y     HAL2     0.900000E-01   1.00800           0
     14436 MEMB     109      POPC     C314     CTL2    -0.180000       12.0110           0
     14437 MEMB     109      POPC     H14X     HAL2     0.900000E-01   1.00800           0
     14438 MEMB     109      POPC     H14Y     HAL2     0.900000E-01   1.00800           0
     14439 MEMB     109      POPC     C315     CTL2    -0.180000       12.0110           0
     14440 MEMB     109      POPC     H15X     HAL2     0.900000E-01   1.00800           0
     14441 MEMB     109      POPC     H15Y     HAL2     0.900000E-01   1.00800           0
     14442 MEMB     109      POPC     C316     CTL3    -0.270000       12.0110           0
     14443 MEMB     109      POPC     H16X     HAL3     0.900000E-01   1.00800           0
     14444 MEMB     109      POPC     H16Y     HAL3     0.900000E-01   1.00800           0
     14445 MEMB     109      POPC     H16Z     HAL3     0.900000E-01   1.00800           0
     14446 MEMB     110      POPC     N        NTL     -0.600000       14.0070           0
     14447 MEMB     110      POPC     C12      CTL2    -0.100000       12.0110           0
     14448 MEMB     110      POPC     H12A     HL       0.250000       1.00800           0
     14449 MEMB     110      POPC     H12B     HL       0.250000       1.00800           0
     14450 MEMB     110      POPC     C13      CTL5    -0.350000       12.0110           0
     14451 MEMB     110      POPC     H13A     HL       0.250000       1.00800           0
     14452 MEMB     110      POPC     H13B     HL       0.250000       1.00800           0
     14453 MEMB     110      POPC     H13C     HL       0.250000       1.00800           0
     14454 MEMB     110      POPC     C14      CTL5    -0.350000       12.0110           0
     14455 MEMB     110      POPC     H14A     HL       0.250000       1.00800           0
     14456 MEMB     110      POPC     H14B     HL       0.250000       1.00800           0
     14457 MEMB     110      POPC     H14C     HL       0.250000       1.00800           0
     14458 MEMB     110      POPC     C15      CTL5    -0.350000       12.0110           0
     14459 MEMB     110      POPC     H15A     HL       0.250000       1.00800           0
     14460 MEMB     110      POPC     H15B     HL       0.250000       1.00800           0
     14461 MEMB     110      POPC     H15C     HL       0.250000       1.00800           0
     14462 MEMB     110      POPC     C11      CTL2    -0.800000E-01   12.0110           0
     14463 MEMB     110      POPC     H11A     HAL2     0.900000E-01   1.00800           0
     14464 MEMB     110      POPC     H11B     HAL2     0.900000E-01   1.00800           0
     14465 MEMB     110      POPC     P        PL        1.50000       30.9740           0
     14466 MEMB     110      POPC     O13      O2L     -0.780000       15.9994           0
     14467 MEMB     110      POPC     O14      O2L     -0.780000       15.9994           0
     14468 MEMB     110      POPC     O12      OSLP    -0.570000       15.9994           0
     14469 MEMB     110      POPC     O11      OSLP    -0.570000       15.9994           0
     14470 MEMB     110      POPC     C1       CTL2    -0.800000E-01   12.0110           0
     14471 MEMB     110      POPC     HA       HAL2     0.900000E-01   1.00800           0
     14472 MEMB     110      POPC     HB       HAL2     0.900000E-01   1.00800           0
     14473 MEMB     110      POPC     C2       CTL1     0.170000       12.0110           0
     14474 MEMB     110      POPC     HS       HAL1     0.900000E-01   1.00800           0
     14475 MEMB     110      POPC     O21      OSL     -0.490000       15.9994           0
     14476 MEMB     110      POPC     C21      CL       0.900000       12.0110           0
     14477 MEMB     110      POPC     O22      OBL     -0.630000       15.9994           0
     14478 MEMB     110      POPC     C22      CTL2    -0.220000       12.0110           0
     14479 MEMB     110      POPC     H2R      HAL2     0.900000E-01   1.00800           0
     14480 MEMB     110      POPC     H2S      HAL2     0.900000E-01   1.00800           0
     14481 MEMB     110      POPC     C3       CTL2     0.800000E-01   12.0110           0
     14482 MEMB     110      POPC     HX       HAL2     0.900000E-01   1.00800           0
     14483 MEMB     110      POPC     HY       HAL2     0.900000E-01   1.00800           0
     14484 MEMB     110      POPC     O31      OSL     -0.490000       15.9994           0
     14485 MEMB     110      POPC     C31      CL       0.900000       12.0110           0
     14486 MEMB     110      POPC     O32      OBL     -0.630000       15.9994           0
     14487 MEMB     110      POPC     C32      CTL2    -0.220000       12.0110           0
     14488 MEMB     110      POPC     H2X      HAL2     0.900000E-01   1.00800           0
     14489 MEMB     110      POPC     H2Y      HAL2     0.900000E-01   1.00800           0
     14490 MEMB     110      POPC     C23      CTL2    -0.180000       12.0110           0
     14491 MEMB     110      POPC     H3R      HAL2     0.900000E-01   1.00800           0
     14492 MEMB     110      POPC     H3S      HAL2     0.900000E-01   1.00800           0
     14493 MEMB     110      POPC     C24      CTL2    -0.180000       12.0110           0
     14494 MEMB     110      POPC     H4R      HAL2     0.900000E-01   1.00800           0
     14495 MEMB     110      POPC     H4S      HAL2     0.900000E-01   1.00800           0
     14496 MEMB     110      POPC     C25      CTL2    -0.180000       12.0110           0
     14497 MEMB     110      POPC     H5R      HAL2     0.900000E-01   1.00800           0
     14498 MEMB     110      POPC     H5S      HAL2     0.900000E-01   1.00800           0
     14499 MEMB     110      POPC     C26      CTL2    -0.180000       12.0110           0
     14500 MEMB     110      POPC     H6R      HAL2     0.900000E-01   1.00800           0
     14501 MEMB     110      POPC     H6S      HAL2     0.900000E-01   1.00800           0
     14502 MEMB     110      POPC     C27      CTL2    -0.180000       12.0110           0
     14503 MEMB     110      POPC     H7R      HAL2     0.900000E-01   1.00800           0
     14504 MEMB     110      POPC     H7S      HAL2     0.900000E-01   1.00800           0
     14505 MEMB     110      POPC     C28      CTL2    -0.180000       12.0110           0
     14506 MEMB     110      POPC     H8R      HAL2     0.900000E-01   1.00800           0
     14507 MEMB     110      POPC     H8S      HAL2     0.900000E-01   1.00800           0
     14508 MEMB     110      POPC     C29      CEL1    -0.150000       12.0110           0
     14509 MEMB     110      POPC     H91      HEL1     0.150000       1.00800           0
     14510 MEMB     110      POPC     C210     CEL1    -0.150000       12.0110           0
     14511 MEMB     110      POPC     H101     HEL1     0.150000       1.00800           0
     14512 MEMB     110      POPC     C211     CTL2    -0.180000       12.0110           0
     14513 MEMB     110      POPC     H11R     HAL2     0.900000E-01   1.00800           0
     14514 MEMB     110      POPC     H11S     HAL2     0.900000E-01   1.00800           0
     14515 MEMB     110      POPC     C212     CTL2    -0.180000       12.0110           0
     14516 MEMB     110      POPC     H12R     HAL2     0.900000E-01   1.00800           0
     14517 MEMB     110      POPC     H12S     HAL2     0.900000E-01   1.00800           0
     14518 MEMB     110      POPC     C213     CTL2    -0.180000       12.0110           0
     14519 MEMB     110      POPC     H13R     HAL2     0.900000E-01   1.00800           0
     14520 MEMB     110      POPC     H13S     HAL2     0.900000E-01   1.00800           0
     14521 MEMB     110      POPC     C214     CTL2    -0.180000       12.0110           0
     14522 MEMB     110      POPC     H14R     HAL2     0.900000E-01   1.00800           0
     14523 MEMB     110      POPC     H14S     HAL2     0.900000E-01   1.00800           0
     14524 MEMB     110      POPC     C215     CTL2    -0.180000       12.0110           0
     14525 MEMB     110      POPC     H15R     HAL2     0.900000E-01   1.00800           0
     14526 MEMB     110      POPC     H15S     HAL2     0.900000E-01   1.00800           0
     14527 MEMB     110      POPC     C216     CTL2    -0.180000       12.0110           0
     14528 MEMB     110      POPC     H16R     HAL2     0.900000E-01   1.00800           0
     14529 MEMB     110      POPC     H16S     HAL2     0.900000E-01   1.00800           0
     14530 MEMB     110      POPC     C217     CTL2    -0.180000       12.0110           0
     14531 MEMB     110      POPC     H17R     HAL2     0.900000E-01   1.00800           0
     14532 MEMB     110      POPC     H17S     HAL2     0.900000E-01   1.00800           0
     14533 MEMB     110      POPC     C218     CTL3    -0.270000       12.0110           0
     14534 MEMB     110      POPC     H18R     HAL3     0.900000E-01   1.00800           0
     14535 MEMB     110      POPC     H18S     HAL3     0.900000E-01   1.00800           0
     14536 MEMB     110      POPC     H18T     HAL3     0.900000E-01   1.00800           0
     14537 MEMB     110      POPC     C33      CTL2    -0.180000       12.0110           0
     14538 MEMB     110      POPC     H3X      HAL2     0.900000E-01   1.00800           0
     14539 MEMB     110      POPC     H3Y      HAL2     0.900000E-01   1.00800           0
     14540 MEMB     110      POPC     C34      CTL2    -0.180000       12.0110           0
     14541 MEMB     110      POPC     H4X      HAL2     0.900000E-01   1.00800           0
     14542 MEMB     110      POPC     H4Y      HAL2     0.900000E-01   1.00800           0
     14543 MEMB     110      POPC     C35      CTL2    -0.180000       12.0110           0
     14544 MEMB     110      POPC     H5X      HAL2     0.900000E-01   1.00800           0
     14545 MEMB     110      POPC     H5Y      HAL2     0.900000E-01   1.00800           0
     14546 MEMB     110      POPC     C36      CTL2    -0.180000       12.0110           0
     14547 MEMB     110      POPC     H6X      HAL2     0.900000E-01   1.00800           0
     14548 MEMB     110      POPC     H6Y      HAL2     0.900000E-01   1.00800           0
     14549 MEMB     110      POPC     C37      CTL2    -0.180000       12.0110           0
     14550 MEMB     110      POPC     H7X      HAL2     0.900000E-01   1.00800           0
     14551 MEMB     110      POPC     H7Y      HAL2     0.900000E-01   1.00800           0
     14552 MEMB     110      POPC     C38      CTL2    -0.180000       12.0110           0
     14553 MEMB     110      POPC     H8X      HAL2     0.900000E-01   1.00800           0
     14554 MEMB     110      POPC     H8Y      HAL2     0.900000E-01   1.00800           0
     14555 MEMB     110      POPC     C39      CTL2    -0.180000       12.0110           0
     14556 MEMB     110      POPC     H9X      HAL2     0.900000E-01   1.00800           0
     14557 MEMB     110      POPC     H9Y      HAL2     0.900000E-01   1.00800           0
     14558 MEMB     110      POPC     C310     CTL2    -0.180000       12.0110           0
     14559 MEMB     110      POPC     H10X     HAL2     0.900000E-01   1.00800           0
     14560 MEMB     110      POPC     H10Y     HAL2     0.900000E-01   1.00800           0
     14561 MEMB     110      POPC     C311     CTL2    -0.180000       12.0110           0
     14562 MEMB     110      POPC     H11X     HAL2     0.900000E-01   1.00800           0
     14563 MEMB     110      POPC     H11Y     HAL2     0.900000E-01   1.00800           0
     14564 MEMB     110      POPC     C312     CTL2    -0.180000       12.0110           0
     14565 MEMB     110      POPC     H12X     HAL2     0.900000E-01   1.00800           0
     14566 MEMB     110      POPC     H12Y     HAL2     0.900000E-01   1.00800           0
     14567 MEMB     110      POPC     C313     CTL2    -0.180000       12.0110           0
     14568 MEMB     110      POPC     H13X     HAL2     0.900000E-01   1.00800           0
     14569 MEMB     110      POPC     H13Y     HAL2     0.900000E-01   1.00800           0
     14570 MEMB     110      POPC     C314     CTL2    -0.180000       12.0110           0
     14571 MEMB     110      POPC     H14X     HAL2     0.900000E-01   1.00800           0
     14572 MEMB     110      POPC     H14Y     HAL2     0.900000E-01   1.00800           0
     14573 MEMB     110      POPC     C315     CTL2    -0.180000       12.0110           0
     14574 MEMB     110      POPC     H15X     HAL2     0.900000E-01   1.00800           0
     14575 MEMB     110      POPC     H15Y     HAL2     0.900000E-01   1.00800           0
     14576 MEMB     110      POPC     C316     CTL3    -0.270000       12.0110           0
     14577 MEMB     110      POPC     H16X     HAL3     0.900000E-01   1.00800           0
     14578 MEMB     110      POPC     H16Y     HAL3     0.900000E-01   1.00800           0
     14579 MEMB     110      POPC     H16Z     HAL3     0.900000E-01   1.00800           0
     14580 MEMB     111      POPS     N        NH3L    -0.300000       14.0070           0
     14581 MEMB     111      POPS     HN1      HCL      0.330000       1.00800           0
     14582 MEMB     111      POPS     HN2      HCL      0.330000       1.00800           0
     14583 MEMB     111      POPS     HN3      HCL      0.330000       1.00800           0
     14584 MEMB     111      POPS     C12      CTL1     0.210000       12.0110           0
     14585 MEMB     111      POPS     H12A     HBL      0.100000       1.00800           0
     14586 MEMB     111      POPS     C13      CCL      0.340000       12.0110           0
     14587 MEMB     111      POPS     O13A     OCL     -0.670000       15.9994           0
     14588 MEMB     111      POPS     O13B     OCL     -0.670000       15.9994           0
     14589 MEMB     111      POPS     C11      CTL2    -0.800000E-01   12.0110           0
     14590 MEMB     111      POPS     H11A     HAL2     0.900000E-01   1.00800           0
     14591 MEMB     111      POPS     H11B     HAL2     0.900000E-01   1.00800           0
     14592 MEMB     111      POPS     P        PL        1.50000       30.9740           0
     14593 MEMB     111      POPS     O13      O2L     -0.780000       15.9994           0
     14594 MEMB     111      POPS     O14      O2L     -0.780000       15.9994           0
     14595 MEMB     111      POPS     O12      OSLP    -0.570000       15.9994           0
     14596 MEMB     111      POPS     O11      OSLP    -0.570000       15.9994           0
     14597 MEMB     111      POPS     C1       CTL2    -0.800000E-01   12.0110           0
     14598 MEMB     111      POPS     HA       HAL2     0.900000E-01   1.00800           0
     14599 MEMB     111      POPS     HB       HAL2     0.900000E-01   1.00800           0
     14600 MEMB     111      POPS     C2       CTL1     0.170000       12.0110           0
     14601 MEMB     111      POPS     HS       HAL1     0.900000E-01   1.00800           0
     14602 MEMB     111      POPS     O21      OSL     -0.490000       15.9994           0
     14603 MEMB     111      POPS     C21      CL       0.900000       12.0110           0
     14604 MEMB     111      POPS     O22      OBL     -0.630000       15.9994           0
     14605 MEMB     111      POPS     C22      CTL2    -0.220000       12.0110           0
     14606 MEMB     111      POPS     H2R      HAL2     0.900000E-01   1.00800           0
     14607 MEMB     111      POPS     H2S      HAL2     0.900000E-01   1.00800           0
     14608 MEMB     111      POPS     C3       CTL2     0.800000E-01   12.0110           0
     14609 MEMB     111      POPS     HX       HAL2     0.900000E-01   1.00800           0
     14610 MEMB     111      POPS     HY       HAL2     0.900000E-01   1.00800           0
     14611 MEMB     111      POPS     O31      OSL     -0.490000       15.9994           0
     14612 MEMB     111      POPS     C31      CL       0.900000       12.0110           0
     14613 MEMB     111      POPS     O32      OBL     -0.630000       15.9994           0
     14614 MEMB     111      POPS     C32      CTL2    -0.220000       12.0110           0
     14615 MEMB     111      POPS     H2X      HAL2     0.900000E-01   1.00800           0
     14616 MEMB     111      POPS     H2Y      HAL2     0.900000E-01   1.00800           0
     14617 MEMB     111      POPS     C23      CTL2    -0.180000       12.0110           0
     14618 MEMB     111      POPS     H3R      HAL2     0.900000E-01   1.00800           0
     14619 MEMB     111      POPS     H3S      HAL2     0.900000E-01   1.00800           0
     14620 MEMB     111      POPS     C24      CTL2    -0.180000       12.0110           0
     14621 MEMB     111      POPS     H4R      HAL2     0.900000E-01   1.00800           0
     14622 MEMB     111      POPS     H4S      HAL2     0.900000E-01   1.00800           0
     14623 MEMB     111      POPS     C25      CTL2    -0.180000       12.0110           0
     14624 MEMB     111      POPS     H5R      HAL2     0.900000E-01   1.00800           0
     14625 MEMB     111      POPS     H5S      HAL2     0.900000E-01   1.00800           0
     14626 MEMB     111      POPS     C26      CTL2    -0.180000       12.0110           0
     14627 MEMB     111      POPS     H6R      HAL2     0.900000E-01   1.00800           0
     14628 MEMB     111      POPS     H6S      HAL2     0.900000E-01   1.00800           0
     14629 MEMB     111      POPS     C27      CTL2    -0.180000       12.0110           0
     14630 MEMB     111      POPS     H7R      HAL2     0.900000E-01   1.00800           0
     14631 MEMB     111      POPS     H7S      HAL2     0.900000E-01   1.00800           0
     14632 MEMB     111      POPS     C28      CTL2    -0.180000       12.0110           0
     14633 MEMB     111      POPS     H8R      HAL2     0.900000E-01   1.00800           0
     14634 MEMB     111      POPS     H8S      HAL2     0.900000E-01   1.00800           0
     14635 MEMB     111      POPS     C29      CEL1    -0.150000       12.0110           0
     14636 MEMB     111      POPS     H91      HEL1     0.150000       1.00800           0
     14637 MEMB     111      POPS     C210     CEL1    -0.150000       12.0110           0
     14638 MEMB     111      POPS     H101     HEL1     0.150000       1.00800           0
     14639 MEMB     111      POPS     C211     CTL2    -0.180000       12.0110           0
     14640 MEMB     111      POPS     H11R     HAL2     0.900000E-01   1.00800           0
     14641 MEMB     111      POPS     H11S     HAL2     0.900000E-01   1.00800           0
     14642 MEMB     111      POPS     C212     CTL2    -0.180000       12.0110           0
     14643 MEMB     111      POPS     H12R     HAL2     0.900000E-01   1.00800           0
     14644 MEMB     111      POPS     H12S     HAL2     0.900000E-01   1.00800           0
     14645 MEMB     111      POPS     C213     CTL2    -0.180000       12.0110           0
     14646 MEMB     111      POPS     H13R     HAL2     0.900000E-01   1.00800           0
     14647 MEMB     111      POPS     H13S     HAL2     0.900000E-01   1.00800           0
     14648 MEMB     111      POPS     C214     CTL2    -0.180000       12.0110           0
     14649 MEMB     111      POPS     H14R     HAL2     0.900000E-01   1.00800           0
     14650 MEMB     111      POPS     H14S     HAL2     0.900000E-01   1.00800           0
     14651 MEMB     111      POPS     C215     CTL2    -0.180000       12.0110           0
     14652 MEMB     111      POPS     H15R     HAL2     0.900000E-01   1.00800           0
     14653 MEMB     111      POPS     H15S     HAL2     0.900000E-01   1.00800           0
     14654 MEMB     111      POPS     C216     CTL2    -0.180000       12.0110           0
     14655 MEMB     111      POPS     H16R     HAL2     0.900000E-01   1.00800           0
     14656 MEMB     111      POPS     H16S     HAL2     0.900000E-01   1.00800           0
     14657 MEMB     111      POPS     C217     CTL2    -0.180000       12.0110           0
     14658 MEMB     111      POPS     H17R     HAL2     0.900000E-01   1.00800           0
     14659 MEMB     111      POPS     H17S     HAL2     0.900000E-01   1.00800           0
     14660 MEMB     111      POPS     C218     CTL3    -0.270000       12.0110           0
     14661 MEMB     111      POPS     H18R     HAL3     0.900000E-01   1.00800           0
     14662 MEMB     111      POPS     H18S     HAL3     0.900000E-01   1.00800           0
     14663 MEMB     111      POPS     H18T     HAL3     0.900000E-01   1.00800           0
     14664 MEMB     111      POPS     C33      CTL2    -0.180000       12.0110           0
     14665 MEMB     111      POPS     H3X      HAL2     0.900000E-01   1.00800           0
     14666 MEMB     111      POPS     H3Y      HAL2     0.900000E-01   1.00800           0
     14667 MEMB     111      POPS     C34      CTL2    -0.180000       12.0110           0
     14668 MEMB     111      POPS     H4X      HAL2     0.900000E-01   1.00800           0
     14669 MEMB     111      POPS     H4Y      HAL2     0.900000E-01   1.00800           0
     14670 MEMB     111      POPS     C35      CTL2    -0.180000       12.0110           0
     14671 MEMB     111      POPS     H5X      HAL2     0.900000E-01   1.00800           0
     14672 MEMB     111      POPS     H5Y      HAL2     0.900000E-01   1.00800           0
     14673 MEMB     111      POPS     C36      CTL2    -0.180000       12.0110           0
     14674 MEMB     111      POPS     H6X      HAL2     0.900000E-01   1.00800           0
     14675 MEMB     111      POPS     H6Y      HAL2     0.900000E-01   1.00800           0
     14676 MEMB     111      POPS     C37      CTL2    -0.180000       12.0110           0
     14677 MEMB     111      POPS     H7X      HAL2     0.900000E-01   1.00800           0
     14678 MEMB     111      POPS     H7Y      HAL2     0.900000E-01   1.00800           0
     14679 MEMB     111      POPS     C38      CTL2    -0.180000       12.0110           0
     14680 MEMB     111      POPS     H8X      HAL2     0.900000E-01   1.00800           0
     14681 MEMB     111      POPS     H8Y      HAL2     0.900000E-01   1.00800           0
     14682 MEMB     111      POPS     C39      CTL2    -0.180000       12.0110           0
     14683 MEMB     111      POPS     H9X      HAL2     0.900000E-01   1.00800           0
     14684 MEMB     111      POPS     H9Y      HAL2     0.900000E-01   1.00800           0
     14685 MEMB     111      POPS     C310     CTL2    -0.180000       12.0110           0
     14686 MEMB     111      POPS     H10X     HAL2     0.900000E-01   1.00800           0
     14687 MEMB     111      POPS     H10Y     HAL2     0.900000E-01   1.00800           0
     14688 MEMB     111      POPS     C311     CTL2    -0.180000       12.0110           0
     14689 MEMB     111      POPS     H11X     HAL2     0.900000E-01   1.00800           0
     14690 MEMB     111      POPS     H11Y     HAL2     0.900000E-01   1.00800           0
     14691 MEMB     111      POPS     C312     CTL2    -0.180000       12.0110           0
     14692 MEMB     111      POPS     H12X     HAL2     0.900000E-01   1.00800           0
     14693 MEMB     111      POPS     H12Y     HAL2     0.900000E-01   1.00800           0
     14694 MEMB     111      POPS     C313     CTL2    -0.180000       12.0110           0
     14695 MEMB     111      POPS     H13X     HAL2     0.900000E-01   1.00800           0
     14696 MEMB     111      POPS     H13Y     HAL2     0.900000E-01   1.00800           0
     14697 MEMB     111      POPS     C314     CTL2    -0.180000       12.0110           0
     14698 MEMB     111      POPS     H14X     HAL2     0.900000E-01   1.00800           0
     14699 MEMB     111      POPS     H14Y     HAL2     0.900000E-01   1.00800           0
     14700 MEMB     111      POPS     C315     CTL2    -0.180000       12.0110           0
     14701 MEMB     111      POPS     H15X     HAL2     0.900000E-01   1.00800           0
     14702 MEMB     111      POPS     H15Y     HAL2     0.900000E-01   1.00800           0
     14703 MEMB     111      POPS     C316     CTL3    -0.270000       12.0110           0
     14704 MEMB     111      POPS     H16X     HAL3     0.900000E-01   1.00800           0
     14705 MEMB     111      POPS     H16Y     HAL3     0.900000E-01   1.00800           0
     14706 MEMB     111      POPS     H16Z     HAL3     0.900000E-01   1.00800           0
     14707 MEMB     112      POPC     N        NTL     -0.600000       14.0070           0
     14708 MEMB     112      POPC     C12      CTL2    -0.100000       12.0110           0
     14709 MEMB     112      POPC     H12A     HL       0.250000       1.00800           0
     14710 MEMB     112      POPC     H12B     HL       0.250000       1.00800           0
     14711 MEMB     112      POPC     C13      CTL5    -0.350000       12.0110           0
     14712 MEMB     112      POPC     H13A     HL       0.250000       1.00800           0
     14713 MEMB     112      POPC     H13B     HL       0.250000       1.00800           0
     14714 MEMB     112      POPC     H13C     HL       0.250000       1.00800           0
     14715 MEMB     112      POPC     C14      CTL5    -0.350000       12.0110           0
     14716 MEMB     112      POPC     H14A     HL       0.250000       1.00800           0
     14717 MEMB     112      POPC     H14B     HL       0.250000       1.00800           0
     14718 MEMB     112      POPC     H14C     HL       0.250000       1.00800           0
     14719 MEMB     112      POPC     C15      CTL5    -0.350000       12.0110           0
     14720 MEMB     112      POPC     H15A     HL       0.250000       1.00800           0
     14721 MEMB     112      POPC     H15B     HL       0.250000       1.00800           0
     14722 MEMB     112      POPC     H15C     HL       0.250000       1.00800           0
     14723 MEMB     112      POPC     C11      CTL2    -0.800000E-01   12.0110           0
     14724 MEMB     112      POPC     H11A     HAL2     0.900000E-01   1.00800           0
     14725 MEMB     112      POPC     H11B     HAL2     0.900000E-01   1.00800           0
     14726 MEMB     112      POPC     P        PL        1.50000       30.9740           0
     14727 MEMB     112      POPC     O13      O2L     -0.780000       15.9994           0
     14728 MEMB     112      POPC     O14      O2L     -0.780000       15.9994           0
     14729 MEMB     112      POPC     O12      OSLP    -0.570000       15.9994           0
     14730 MEMB     112      POPC     O11      OSLP    -0.570000       15.9994           0
     14731 MEMB     112      POPC     C1       CTL2    -0.800000E-01   12.0110           0
     14732 MEMB     112      POPC     HA       HAL2     0.900000E-01   1.00800           0
     14733 MEMB     112      POPC     HB       HAL2     0.900000E-01   1.00800           0
     14734 MEMB     112      POPC     C2       CTL1     0.170000       12.0110           0
     14735 MEMB     112      POPC     HS       HAL1     0.900000E-01   1.00800           0
     14736 MEMB     112      POPC     O21      OSL     -0.490000       15.9994           0
     14737 MEMB     112      POPC     C21      CL       0.900000       12.0110           0
     14738 MEMB     112      POPC     O22      OBL     -0.630000       15.9994           0
     14739 MEMB     112      POPC     C22      CTL2    -0.220000       12.0110           0
     14740 MEMB     112      POPC     H2R      HAL2     0.900000E-01   1.00800           0
     14741 MEMB     112      POPC     H2S      HAL2     0.900000E-01   1.00800           0
     14742 MEMB     112      POPC     C3       CTL2     0.800000E-01   12.0110           0
     14743 MEMB     112      POPC     HX       HAL2     0.900000E-01   1.00800           0
     14744 MEMB     112      POPC     HY       HAL2     0.900000E-01   1.00800           0
     14745 MEMB     112      POPC     O31      OSL     -0.490000       15.9994           0
     14746 MEMB     112      POPC     C31      CL       0.900000       12.0110           0
     14747 MEMB     112      POPC     O32      OBL     -0.630000       15.9994           0
     14748 MEMB     112      POPC     C32      CTL2    -0.220000       12.0110           0
     14749 MEMB     112      POPC     H2X      HAL2     0.900000E-01   1.00800           0
     14750 MEMB     112      POPC     H2Y      HAL2     0.900000E-01   1.00800           0
     14751 MEMB     112      POPC     C23      CTL2    -0.180000       12.0110           0
     14752 MEMB     112      POPC     H3R      HAL2     0.900000E-01   1.00800           0
     14753 MEMB     112      POPC     H3S      HAL2     0.900000E-01   1.00800           0
     14754 MEMB     112      POPC     C24      CTL2    -0.180000       12.0110           0
     14755 MEMB     112      POPC     H4R      HAL2     0.900000E-01   1.00800           0
     14756 MEMB     112      POPC     H4S      HAL2     0.900000E-01   1.00800           0
     14757 MEMB     112      POPC     C25      CTL2    -0.180000       12.0110           0
     14758 MEMB     112      POPC     H5R      HAL2     0.900000E-01   1.00800           0
     14759 MEMB     112      POPC     H5S      HAL2     0.900000E-01   1.00800           0
     14760 MEMB     112      POPC     C26      CTL2    -0.180000       12.0110           0
     14761 MEMB     112      POPC     H6R      HAL2     0.900000E-01   1.00800           0
     14762 MEMB     112      POPC     H6S      HAL2     0.900000E-01   1.00800           0
     14763 MEMB     112      POPC     C27      CTL2    -0.180000       12.0110           0
     14764 MEMB     112      POPC     H7R      HAL2     0.900000E-01   1.00800           0
     14765 MEMB     112      POPC     H7S      HAL2     0.900000E-01   1.00800           0
     14766 MEMB     112      POPC     C28      CTL2    -0.180000       12.0110           0
     14767 MEMB     112      POPC     H8R      HAL2     0.900000E-01   1.00800           0
     14768 MEMB     112      POPC     H8S      HAL2     0.900000E-01   1.00800           0
     14769 MEMB     112      POPC     C29      CEL1    -0.150000       12.0110           0
     14770 MEMB     112      POPC     H91      HEL1     0.150000       1.00800           0
     14771 MEMB     112      POPC     C210     CEL1    -0.150000       12.0110           0
     14772 MEMB     112      POPC     H101     HEL1     0.150000       1.00800           0
     14773 MEMB     112      POPC     C211     CTL2    -0.180000       12.0110           0
     14774 MEMB     112      POPC     H11R     HAL2     0.900000E-01   1.00800           0
     14775 MEMB     112      POPC     H11S     HAL2     0.900000E-01   1.00800           0
     14776 MEMB     112      POPC     C212     CTL2    -0.180000       12.0110           0
     14777 MEMB     112      POPC     H12R     HAL2     0.900000E-01   1.00800           0
     14778 MEMB     112      POPC     H12S     HAL2     0.900000E-01   1.00800           0
     14779 MEMB     112      POPC     C213     CTL2    -0.180000       12.0110           0
     14780 MEMB     112      POPC     H13R     HAL2     0.900000E-01   1.00800           0
     14781 MEMB     112      POPC     H13S     HAL2     0.900000E-01   1.00800           0
     14782 MEMB     112      POPC     C214     CTL2    -0.180000       12.0110           0
     14783 MEMB     112      POPC     H14R     HAL2     0.900000E-01   1.00800           0
     14784 MEMB     112      POPC     H14S     HAL2     0.900000E-01   1.00800           0
     14785 MEMB     112      POPC     C215     CTL2    -0.180000       12.0110           0
     14786 MEMB     112      POPC     H15R     HAL2     0.900000E-01   1.00800           0
     14787 MEMB     112      POPC     H15S     HAL2     0.900000E-01   1.00800           0
     14788 MEMB     112      POPC     C216     CTL2    -0.180000       12.0110           0
     14789 MEMB     112      POPC     H16R     HAL2     0.900000E-01   1.00800           0
     14790 MEMB     112      POPC     H16S     HAL2     0.900000E-01   1.00800           0
     14791 MEMB     112      POPC     C217     CTL2    -0.180000       12.0110           0
     14792 MEMB     112      POPC     H17R     HAL2     0.900000E-01   1.00800           0
     14793 MEMB     112      POPC     H17S     HAL2     0.900000E-01   1.00800           0
     14794 MEMB     112      POPC     C218     CTL3    -0.270000       12.0110           0
     14795 MEMB     112      POPC     H18R     HAL3     0.900000E-01   1.00800           0
     14796 MEMB     112      POPC     H18S     HAL3     0.900000E-01   1.00800           0
     14797 MEMB     112      POPC     H18T     HAL3     0.900000E-01   1.00800           0
     14798 MEMB     112      POPC     C33      CTL2    -0.180000       12.0110           0
     14799 MEMB     112      POPC     H3X      HAL2     0.900000E-01   1.00800           0
     14800 MEMB     112      POPC     H3Y      HAL2     0.900000E-01   1.00800           0
     14801 MEMB     112      POPC     C34      CTL2    -0.180000       12.0110           0
     14802 MEMB     112      POPC     H4X      HAL2     0.900000E-01   1.00800           0
     14803 MEMB     112      POPC     H4Y      HAL2     0.900000E-01   1.00800           0
     14804 MEMB     112      POPC     C35      CTL2    -0.180000       12.0110           0
     14805 MEMB     112      POPC     H5X      HAL2     0.900000E-01   1.00800           0
     14806 MEMB     112      POPC     H5Y      HAL2     0.900000E-01   1.00800           0
     14807 MEMB     112      POPC     C36      CTL2    -0.180000       12.0110           0
     14808 MEMB     112      POPC     H6X      HAL2     0.900000E-01   1.00800           0
     14809 MEMB     112      POPC     H6Y      HAL2     0.900000E-01   1.00800           0
     14810 MEMB     112      POPC     C37      CTL2    -0.180000       12.0110           0
     14811 MEMB     112      POPC     H7X      HAL2     0.900000E-01   1.00800           0
     14812 MEMB     112      POPC     H7Y      HAL2     0.900000E-01   1.00800           0
     14813 MEMB     112      POPC     C38      CTL2    -0.180000       12.0110           0
     14814 MEMB     112      POPC     H8X      HAL2     0.900000E-01   1.00800           0
     14815 MEMB     112      POPC     H8Y      HAL2     0.900000E-01   1.00800           0
     14816 MEMB     112      POPC     C39      CTL2    -0.180000       12.0110           0
     14817 MEMB     112      POPC     H9X      HAL2     0.900000E-01   1.00800           0
     14818 MEMB     112      POPC     H9Y      HAL2     0.900000E-01   1.00800           0
     14819 MEMB     112      POPC     C310     CTL2    -0.180000       12.0110           0
     14820 MEMB     112      POPC     H10X     HAL2     0.900000E-01   1.00800           0
     14821 MEMB     112      POPC     H10Y     HAL2     0.900000E-01   1.00800           0
     14822 MEMB     112      POPC     C311     CTL2    -0.180000       12.0110           0
     14823 MEMB     112      POPC     H11X     HAL2     0.900000E-01   1.00800           0
     14824 MEMB     112      POPC     H11Y     HAL2     0.900000E-01   1.00800           0
     14825 MEMB     112      POPC     C312     CTL2    -0.180000       12.0110           0
     14826 MEMB     112      POPC     H12X     HAL2     0.900000E-01   1.00800           0
     14827 MEMB     112      POPC     H12Y     HAL2     0.900000E-01   1.00800           0
     14828 MEMB     112      POPC     C313     CTL2    -0.180000       12.0110           0
     14829 MEMB     112      POPC     H13X     HAL2     0.900000E-01   1.00800           0
     14830 MEMB     112      POPC     H13Y     HAL2     0.900000E-01   1.00800           0
     14831 MEMB     112      POPC     C314     CTL2    -0.180000       12.0110           0
     14832 MEMB     112      POPC     H14X     HAL2     0.900000E-01   1.00800           0
     14833 MEMB     112      POPC     H14Y     HAL2     0.900000E-01   1.00800           0
     14834 MEMB     112      POPC     C315     CTL2    -0.180000       12.0110           0
     14835 MEMB     112      POPC     H15X     HAL2     0.900000E-01   1.00800           0
     14836 MEMB     112      POPC     H15Y     HAL2     0.900000E-01   1.00800           0
     14837 MEMB     112      POPC     C316     CTL3    -0.270000       12.0110           0
     14838 MEMB     112      POPC     H16X     HAL3     0.900000E-01   1.00800           0
     14839 MEMB     112      POPC     H16Y     HAL3     0.900000E-01   1.00800           0
     14840 MEMB     112      POPC     H16Z     HAL3     0.900000E-01   1.00800           0
     14841 MEMB     113      POPC     N        NTL     -0.600000       14.0070           0
     14842 MEMB     113      POPC     C12      CTL2    -0.100000       12.0110           0
     14843 MEMB     113      POPC     H12A     HL       0.250000       1.00800           0
     14844 MEMB     113      POPC     H12B     HL       0.250000       1.00800           0
     14845 MEMB     113      POPC     C13      CTL5    -0.350000       12.0110           0
     14846 MEMB     113      POPC     H13A     HL       0.250000       1.00800           0
     14847 MEMB     113      POPC     H13B     HL       0.250000       1.00800           0
     14848 MEMB     113      POPC     H13C     HL       0.250000       1.00800           0
     14849 MEMB     113      POPC     C14      CTL5    -0.350000       12.0110           0
     14850 MEMB     113      POPC     H14A     HL       0.250000       1.00800           0
     14851 MEMB     113      POPC     H14B     HL       0.250000       1.00800           0
     14852 MEMB     113      POPC     H14C     HL       0.250000       1.00800           0
     14853 MEMB     113      POPC     C15      CTL5    -0.350000       12.0110           0
     14854 MEMB     113      POPC     H15A     HL       0.250000       1.00800           0
     14855 MEMB     113      POPC     H15B     HL       0.250000       1.00800           0
     14856 MEMB     113      POPC     H15C     HL       0.250000       1.00800           0
     14857 MEMB     113      POPC     C11      CTL2    -0.800000E-01   12.0110           0
     14858 MEMB     113      POPC     H11A     HAL2     0.900000E-01   1.00800           0
     14859 MEMB     113      POPC     H11B     HAL2     0.900000E-01   1.00800           0
     14860 MEMB     113      POPC     P        PL        1.50000       30.9740           0
     14861 MEMB     113      POPC     O13      O2L     -0.780000       15.9994           0
     14862 MEMB     113      POPC     O14      O2L     -0.780000       15.9994           0
     14863 MEMB     113      POPC     O12      OSLP    -0.570000       15.9994           0
     14864 MEMB     113      POPC     O11      OSLP    -0.570000       15.9994           0
     14865 MEMB     113      POPC     C1       CTL2    -0.800000E-01   12.0110           0
     14866 MEMB     113      POPC     HA       HAL2     0.900000E-01   1.00800           0
     14867 MEMB     113      POPC     HB       HAL2     0.900000E-01   1.00800           0
     14868 MEMB     113      POPC     C2       CTL1     0.170000       12.0110           0
     14869 MEMB     113      POPC     HS       HAL1     0.900000E-01   1.00800           0
     14870 MEMB     113      POPC     O21      OSL     -0.490000       15.9994           0
     14871 MEMB     113      POPC     C21      CL       0.900000       12.0110           0
     14872 MEMB     113      POPC     O22      OBL     -0.630000       15.9994           0
     14873 MEMB     113      POPC     C22      CTL2    -0.220000       12.0110           0
     14874 MEMB     113      POPC     H2R      HAL2     0.900000E-01   1.00800           0
     14875 MEMB     113      POPC     H2S      HAL2     0.900000E-01   1.00800           0
     14876 MEMB     113      POPC     C3       CTL2     0.800000E-01   12.0110           0
     14877 MEMB     113      POPC     HX       HAL2     0.900000E-01   1.00800           0
     14878 MEMB     113      POPC     HY       HAL2     0.900000E-01   1.00800           0
     14879 MEMB     113      POPC     O31      OSL     -0.490000       15.9994           0
     14880 MEMB     113      POPC     C31      CL       0.900000       12.0110           0
     14881 MEMB     113      POPC     O32      OBL     -0.630000       15.9994           0
     14882 MEMB     113      POPC     C32      CTL2    -0.220000       12.0110           0
     14883 MEMB     113      POPC     H2X      HAL2     0.900000E-01   1.00800           0
     14884 MEMB     113      POPC     H2Y      HAL2     0.900000E-01   1.00800           0
     14885 MEMB     113      POPC     C23      CTL2    -0.180000       12.0110           0
     14886 MEMB     113      POPC     H3R      HAL2     0.900000E-01   1.00800           0
     14887 MEMB     113      POPC     H3S      HAL2     0.900000E-01   1.00800           0
     14888 MEMB     113      POPC     C24      CTL2    -0.180000       12.0110           0
     14889 MEMB     113      POPC     H4R      HAL2     0.900000E-01   1.00800           0
     14890 MEMB     113      POPC     H4S      HAL2     0.900000E-01   1.00800           0
     14891 MEMB     113      POPC     C25      CTL2    -0.180000       12.0110           0
     14892 MEMB     113      POPC     H5R      HAL2     0.900000E-01   1.00800           0
     14893 MEMB     113      POPC     H5S      HAL2     0.900000E-01   1.00800           0
     14894 MEMB     113      POPC     C26      CTL2    -0.180000       12.0110           0
     14895 MEMB     113      POPC     H6R      HAL2     0.900000E-01   1.00800           0
     14896 MEMB     113      POPC     H6S      HAL2     0.900000E-01   1.00800           0
     14897 MEMB     113      POPC     C27      CTL2    -0.180000       12.0110           0
     14898 MEMB     113      POPC     H7R      HAL2     0.900000E-01   1.00800           0
     14899 MEMB     113      POPC     H7S      HAL2     0.900000E-01   1.00800           0
     14900 MEMB     113      POPC     C28      CTL2    -0.180000       12.0110           0
     14901 MEMB     113      POPC     H8R      HAL2     0.900000E-01   1.00800           0
     14902 MEMB     113      POPC     H8S      HAL2     0.900000E-01   1.00800           0
     14903 MEMB     113      POPC     C29      CEL1    -0.150000       12.0110           0
     14904 MEMB     113      POPC     H91      HEL1     0.150000       1.00800           0
     14905 MEMB     113      POPC     C210     CEL1    -0.150000       12.0110           0
     14906 MEMB     113      POPC     H101     HEL1     0.150000       1.00800           0
     14907 MEMB     113      POPC     C211     CTL2    -0.180000       12.0110           0
     14908 MEMB     113      POPC     H11R     HAL2     0.900000E-01   1.00800           0
     14909 MEMB     113      POPC     H11S     HAL2     0.900000E-01   1.00800           0
     14910 MEMB     113      POPC     C212     CTL2    -0.180000       12.0110           0
     14911 MEMB     113      POPC     H12R     HAL2     0.900000E-01   1.00800           0
     14912 MEMB     113      POPC     H12S     HAL2     0.900000E-01   1.00800           0
     14913 MEMB     113      POPC     C213     CTL2    -0.180000       12.0110           0
     14914 MEMB     113      POPC     H13R     HAL2     0.900000E-01   1.00800           0
     14915 MEMB     113      POPC     H13S     HAL2     0.900000E-01   1.00800           0
     14916 MEMB     113      POPC     C214     CTL2    -0.180000       12.0110           0
     14917 MEMB     113      POPC     H14R     HAL2     0.900000E-01   1.00800           0
     14918 MEMB     113      POPC     H14S     HAL2     0.900000E-01   1.00800           0
     14919 MEMB     113      POPC     C215     CTL2    -0.180000       12.0110           0
     14920 MEMB     113      POPC     H15R     HAL2     0.900000E-01   1.00800           0
     14921 MEMB     113      POPC     H15S     HAL2     0.900000E-01   1.00800           0
     14922 MEMB     113      POPC     C216     CTL2    -0.180000       12.0110           0
     14923 MEMB     113      POPC     H16R     HAL2     0.900000E-01   1.00800           0
     14924 MEMB     113      POPC     H16S     HAL2     0.900000E-01   1.00800           0
     14925 MEMB     113      POPC     C217     CTL2    -0.180000       12.0110           0
     14926 MEMB     113      POPC     H17R     HAL2     0.900000E-01   1.00800           0
     14927 MEMB     113      POPC     H17S     HAL2     0.900000E-01   1.00800           0
     14928 MEMB     113      POPC     C218     CTL3    -0.270000       12.0110           0
     14929 MEMB     113      POPC     H18R     HAL3     0.900000E-01   1.00800           0
     14930 MEMB     113      POPC     H18S     HAL3     0.900000E-01   1.00800           0
     14931 MEMB     113      POPC     H18T     HAL3     0.900000E-01   1.00800           0
     14932 MEMB     113      POPC     C33      CTL2    -0.180000       12.0110           0
     14933 MEMB     113      POPC     H3X      HAL2     0.900000E-01   1.00800           0
     14934 MEMB     113      POPC     H3Y      HAL2     0.900000E-01   1.00800           0
     14935 MEMB     113      POPC     C34      CTL2    -0.180000       12.0110           0
     14936 MEMB     113      POPC     H4X      HAL2     0.900000E-01   1.00800           0
     14937 MEMB     113      POPC     H4Y      HAL2     0.900000E-01   1.00800           0
     14938 MEMB     113      POPC     C35      CTL2    -0.180000       12.0110           0
     14939 MEMB     113      POPC     H5X      HAL2     0.900000E-01   1.00800           0
     14940 MEMB     113      POPC     H5Y      HAL2     0.900000E-01   1.00800           0
     14941 MEMB     113      POPC     C36      CTL2    -0.180000       12.0110           0
     14942 MEMB     113      POPC     H6X      HAL2     0.900000E-01   1.00800           0
     14943 MEMB     113      POPC     H6Y      HAL2     0.900000E-01   1.00800           0
     14944 MEMB     113      POPC     C37      CTL2    -0.180000       12.0110           0
     14945 MEMB     113      POPC     H7X      HAL2     0.900000E-01   1.00800           0
     14946 MEMB     113      POPC     H7Y      HAL2     0.900000E-01   1.00800           0
     14947 MEMB     113      POPC     C38      CTL2    -0.180000       12.0110           0
     14948 MEMB     113      POPC     H8X      HAL2     0.900000E-01   1.00800           0
     14949 MEMB     113      POPC     H8Y      HAL2     0.900000E-01   1.00800           0
     14950 MEMB     113      POPC     C39      CTL2    -0.180000       12.0110           0
     14951 MEMB     113      POPC     H9X      HAL2     0.900000E-01   1.00800           0
     14952 MEMB     113      POPC     H9Y      HAL2     0.900000E-01   1.00800           0
     14953 MEMB     113      POPC     C310     CTL2    -0.180000       12.0110           0
     14954 MEMB     113      POPC     H10X     HAL2     0.900000E-01   1.00800           0
     14955 MEMB     113      POPC     H10Y     HAL2     0.900000E-01   1.00800           0
     14956 MEMB     113      POPC     C311     CTL2    -0.180000       12.0110           0
     14957 MEMB     113      POPC     H11X     HAL2     0.900000E-01   1.00800           0
     14958 MEMB     113      POPC     H11Y     HAL2     0.900000E-01   1.00800           0
     14959 MEMB     113      POPC     C312     CTL2    -0.180000       12.0110           0
     14960 MEMB     113      POPC     H12X     HAL2     0.900000E-01   1.00800           0
     14961 MEMB     113      POPC     H12Y     HAL2     0.900000E-01   1.00800           0
     14962 MEMB     113      POPC     C313     CTL2    -0.180000       12.0110           0
     14963 MEMB     113      POPC     H13X     HAL2     0.900000E-01   1.00800           0
     14964 MEMB     113      POPC     H13Y     HAL2     0.900000E-01   1.00800           0
     14965 MEMB     113      POPC     C314     CTL2    -0.180000       12.0110           0
     14966 MEMB     113      POPC     H14X     HAL2     0.900000E-01   1.00800           0
     14967 MEMB     113      POPC     H14Y     HAL2     0.900000E-01   1.00800           0
     14968 MEMB     113      POPC     C315     CTL2    -0.180000       12.0110           0
     14969 MEMB     113      POPC     H15X     HAL2     0.900000E-01   1.00800           0
     14970 MEMB     113      POPC     H15Y     HAL2     0.900000E-01   1.00800           0
     14971 MEMB     113      POPC     C316     CTL3    -0.270000       12.0110           0
     14972 MEMB     113      POPC     H16X     HAL3     0.900000E-01   1.00800           0
     14973 MEMB     113      POPC     H16Y     HAL3     0.900000E-01   1.00800           0
     14974 MEMB     113      POPC     H16Z     HAL3     0.900000E-01   1.00800           0
     14975 MEMB     114      POPS     N        NH3L    -0.300000       14.0070           0
     14976 MEMB     114      POPS     HN1      HCL      0.330000       1.00800           0
     14977 MEMB     114      POPS     HN2      HCL      0.330000       1.00800           0
     14978 MEMB     114      POPS     HN3      HCL      0.330000       1.00800           0
     14979 MEMB     114      POPS     C12      CTL1     0.210000       12.0110           0
     14980 MEMB     114      POPS     H12A     HBL      0.100000       1.00800           0
     14981 MEMB     114      POPS     C13      CCL      0.340000       12.0110           0
     14982 MEMB     114      POPS     O13A     OCL     -0.670000       15.9994           0
     14983 MEMB     114      POPS     O13B     OCL     -0.670000       15.9994           0
     14984 MEMB     114      POPS     C11      CTL2    -0.800000E-01   12.0110           0
     14985 MEMB     114      POPS     H11A     HAL2     0.900000E-01   1.00800           0
     14986 MEMB     114      POPS     H11B     HAL2     0.900000E-01   1.00800           0
     14987 MEMB     114      POPS     P        PL        1.50000       30.9740           0
     14988 MEMB     114      POPS     O13      O2L     -0.780000       15.9994           0
     14989 MEMB     114      POPS     O14      O2L     -0.780000       15.9994           0
     14990 MEMB     114      POPS     O12      OSLP    -0.570000       15.9994           0
     14991 MEMB     114      POPS     O11      OSLP    -0.570000       15.9994           0
     14992 MEMB     114      POPS     C1       CTL2    -0.800000E-01   12.0110           0
     14993 MEMB     114      POPS     HA       HAL2     0.900000E-01   1.00800           0
     14994 MEMB     114      POPS     HB       HAL2     0.900000E-01   1.00800           0
     14995 MEMB     114      POPS     C2       CTL1     0.170000       12.0110           0
     14996 MEMB     114      POPS     HS       HAL1     0.900000E-01   1.00800           0
     14997 MEMB     114      POPS     O21      OSL     -0.490000       15.9994           0
     14998 MEMB     114      POPS     C21      CL       0.900000       12.0110           0
     14999 MEMB     114      POPS     O22      OBL     -0.630000       15.9994           0
     15000 MEMB     114      POPS     C22      CTL2    -0.220000       12.0110           0
     15001 MEMB     114      POPS     H2R      HAL2     0.900000E-01   1.00800           0
     15002 MEMB     114      POPS     H2S      HAL2     0.900000E-01   1.00800           0
     15003 MEMB     114      POPS     C3       CTL2     0.800000E-01   12.0110           0
     15004 MEMB     114      POPS     HX       HAL2     0.900000E-01   1.00800           0
     15005 MEMB     114      POPS     HY       HAL2     0.900000E-01   1.00800           0
     15006 MEMB     114      POPS     O31      OSL     -0.490000       15.9994           0
     15007 MEMB     114      POPS     C31      CL       0.900000       12.0110           0
     15008 MEMB     114      POPS     O32      OBL     -0.630000       15.9994           0
     15009 MEMB     114      POPS     C32      CTL2    -0.220000       12.0110           0
     15010 MEMB     114      POPS     H2X      HAL2     0.900000E-01   1.00800           0
     15011 MEMB     114      POPS     H2Y      HAL2     0.900000E-01   1.00800           0
     15012 MEMB     114      POPS     C23      CTL2    -0.180000       12.0110           0
     15013 MEMB     114      POPS     H3R      HAL2     0.900000E-01   1.00800           0
     15014 MEMB     114      POPS     H3S      HAL2     0.900000E-01   1.00800           0
     15015 MEMB     114      POPS     C24      CTL2    -0.180000       12.0110           0
     15016 MEMB     114      POPS     H4R      HAL2     0.900000E-01   1.00800           0
     15017 MEMB     114      POPS     H4S      HAL2     0.900000E-01   1.00800           0
     15018 MEMB     114      POPS     C25      CTL2    -0.180000       12.0110           0
     15019 MEMB     114      POPS     H5R      HAL2     0.900000E-01   1.00800           0
     15020 MEMB     114      POPS     H5S      HAL2     0.900000E-01   1.00800           0
     15021 MEMB     114      POPS     C26      CTL2    -0.180000       12.0110           0
     15022 MEMB     114      POPS     H6R      HAL2     0.900000E-01   1.00800           0
     15023 MEMB     114      POPS     H6S      HAL2     0.900000E-01   1.00800           0
     15024 MEMB     114      POPS     C27      CTL2    -0.180000       12.0110           0
     15025 MEMB     114      POPS     H7R      HAL2     0.900000E-01   1.00800           0
     15026 MEMB     114      POPS     H7S      HAL2     0.900000E-01   1.00800           0
     15027 MEMB     114      POPS     C28      CTL2    -0.180000       12.0110           0
     15028 MEMB     114      POPS     H8R      HAL2     0.900000E-01   1.00800           0
     15029 MEMB     114      POPS     H8S      HAL2     0.900000E-01   1.00800           0
     15030 MEMB     114      POPS     C29      CEL1    -0.150000       12.0110           0
     15031 MEMB     114      POPS     H91      HEL1     0.150000       1.00800           0
     15032 MEMB     114      POPS     C210     CEL1    -0.150000       12.0110           0
     15033 MEMB     114      POPS     H101     HEL1     0.150000       1.00800           0
     15034 MEMB     114      POPS     C211     CTL2    -0.180000       12.0110           0
     15035 MEMB     114      POPS     H11R     HAL2     0.900000E-01   1.00800           0
     15036 MEMB     114      POPS     H11S     HAL2     0.900000E-01   1.00800           0
     15037 MEMB     114      POPS     C212     CTL2    -0.180000       12.0110           0
     15038 MEMB     114      POPS     H12R     HAL2     0.900000E-01   1.00800           0
     15039 MEMB     114      POPS     H12S     HAL2     0.900000E-01   1.00800           0
     15040 MEMB     114      POPS     C213     CTL2    -0.180000       12.0110           0
     15041 MEMB     114      POPS     H13R     HAL2     0.900000E-01   1.00800           0
     15042 MEMB     114      POPS     H13S     HAL2     0.900000E-01   1.00800           0
     15043 MEMB     114      POPS     C214     CTL2    -0.180000       12.0110           0
     15044 MEMB     114      POPS     H14R     HAL2     0.900000E-01   1.00800           0
     15045 MEMB     114      POPS     H14S     HAL2     0.900000E-01   1.00800           0
     15046 MEMB     114      POPS     C215     CTL2    -0.180000       12.0110           0
     15047 MEMB     114      POPS     H15R     HAL2     0.900000E-01   1.00800           0
     15048 MEMB     114      POPS     H15S     HAL2     0.900000E-01   1.00800           0
     15049 MEMB     114      POPS     C216     CTL2    -0.180000       12.0110           0
     15050 MEMB     114      POPS     H16R     HAL2     0.900000E-01   1.00800           0
     15051 MEMB     114      POPS     H16S     HAL2     0.900000E-01   1.00800           0
     15052 MEMB     114      POPS     C217     CTL2    -0.180000       12.0110           0
     15053 MEMB     114      POPS     H17R     HAL2     0.900000E-01   1.00800           0
     15054 MEMB     114      POPS     H17S     HAL2     0.900000E-01   1.00800           0
     15055 MEMB     114      POPS     C218     CTL3    -0.270000       12.0110           0
     15056 MEMB     114      POPS     H18R     HAL3     0.900000E-01   1.00800           0
     15057 MEMB     114      POPS     H18S     HAL3     0.900000E-01   1.00800           0
     15058 MEMB     114      POPS     H18T     HAL3     0.900000E-01   1.00800           0
     15059 MEMB     114      POPS     C33      CTL2    -0.180000       12.0110           0
     15060 MEMB     114      POPS     H3X      HAL2     0.900000E-01   1.00800           0
     15061 MEMB     114      POPS     H3Y      HAL2     0.900000E-01   1.00800           0
     15062 MEMB     114      POPS     C34      CTL2    -0.180000       12.0110           0
     15063 MEMB     114      POPS     H4X      HAL2     0.900000E-01   1.00800           0
     15064 MEMB     114      POPS     H4Y      HAL2     0.900000E-01   1.00800           0
     15065 MEMB     114      POPS     C35      CTL2    -0.180000       12.0110           0
     15066 MEMB     114      POPS     H5X      HAL2     0.900000E-01   1.00800           0
     15067 MEMB     114      POPS     H5Y      HAL2     0.900000E-01   1.00800           0
     15068 MEMB     114      POPS     C36      CTL2    -0.180000       12.0110           0
     15069 MEMB     114      POPS     H6X      HAL2     0.900000E-01   1.00800           0
     15070 MEMB     114      POPS     H6Y      HAL2     0.900000E-01   1.00800           0
     15071 MEMB     114      POPS     C37      CTL2    -0.180000       12.0110           0
     15072 MEMB     114      POPS     H7X      HAL2     0.900000E-01   1.00800           0
     15073 MEMB     114      POPS     H7Y      HAL2     0.900000E-01   1.00800           0
     15074 MEMB     114      POPS     C38      CTL2    -0.180000       12.0110           0
     15075 MEMB     114      POPS     H8X      HAL2     0.900000E-01   1.00800           0
     15076 MEMB     114      POPS     H8Y      HAL2     0.900000E-01   1.00800           0
     15077 MEMB     114      POPS     C39      CTL2    -0.180000       12.0110           0
     15078 MEMB     114      POPS     H9X      HAL2     0.900000E-01   1.00800           0
     15079 MEMB     114      POPS     H9Y      HAL2     0.900000E-01   1.00800           0
     15080 MEMB     114      POPS     C310     CTL2    -0.180000       12.0110           0
     15081 MEMB     114      POPS     H10X     HAL2     0.900000E-01   1.00800           0
     15082 MEMB     114      POPS     H10Y     HAL2     0.900000E-01   1.00800           0
     15083 MEMB     114      POPS     C311     CTL2    -0.180000       12.0110           0
     15084 MEMB     114      POPS     H11X     HAL2     0.900000E-01   1.00800           0
     15085 MEMB     114      POPS     H11Y     HAL2     0.900000E-01   1.00800           0
     15086 MEMB     114      POPS     C312     CTL2    -0.180000       12.0110           0
     15087 MEMB     114      POPS     H12X     HAL2     0.900000E-01   1.00800           0
     15088 MEMB     114      POPS     H12Y     HAL2     0.900000E-01   1.00800           0
     15089 MEMB     114      POPS     C313     CTL2    -0.180000       12.0110           0
     15090 MEMB     114      POPS     H13X     HAL2     0.900000E-01   1.00800           0
     15091 MEMB     114      POPS     H13Y     HAL2     0.900000E-01   1.00800           0
     15092 MEMB     114      POPS     C314     CTL2    -0.180000       12.0110           0
     15093 MEMB     114      POPS     H14X     HAL2     0.900000E-01   1.00800           0
     15094 MEMB     114      POPS     H14Y     HAL2     0.900000E-01   1.00800           0
     15095 MEMB     114      POPS     C315     CTL2    -0.180000       12.0110           0
     15096 MEMB     114      POPS     H15X     HAL2     0.900000E-01   1.00800           0
     15097 MEMB     114      POPS     H15Y     HAL2     0.900000E-01   1.00800           0
     15098 MEMB     114      POPS     C316     CTL3    -0.270000       12.0110           0
     15099 MEMB     114      POPS     H16X     HAL3     0.900000E-01   1.00800           0
     15100 MEMB     114      POPS     H16Y     HAL3     0.900000E-01   1.00800           0
     15101 MEMB     114      POPS     H16Z     HAL3     0.900000E-01   1.00800           0
     15102 MEMB     115      POPC     N        NTL     -0.600000       14.0070           0
     15103 MEMB     115      POPC     C12      CTL2    -0.100000       12.0110           0
     15104 MEMB     115      POPC     H12A     HL       0.250000       1.00800           0
     15105 MEMB     115      POPC     H12B     HL       0.250000       1.00800           0
     15106 MEMB     115      POPC     C13      CTL5    -0.350000       12.0110           0
     15107 MEMB     115      POPC     H13A     HL       0.250000       1.00800           0
     15108 MEMB     115      POPC     H13B     HL       0.250000       1.00800           0
     15109 MEMB     115      POPC     H13C     HL       0.250000       1.00800           0
     15110 MEMB     115      POPC     C14      CTL5    -0.350000       12.0110           0
     15111 MEMB     115      POPC     H14A     HL       0.250000       1.00800           0
     15112 MEMB     115      POPC     H14B     HL       0.250000       1.00800           0
     15113 MEMB     115      POPC     H14C     HL       0.250000       1.00800           0
     15114 MEMB     115      POPC     C15      CTL5    -0.350000       12.0110           0
     15115 MEMB     115      POPC     H15A     HL       0.250000       1.00800           0
     15116 MEMB     115      POPC     H15B     HL       0.250000       1.00800           0
     15117 MEMB     115      POPC     H15C     HL       0.250000       1.00800           0
     15118 MEMB     115      POPC     C11      CTL2    -0.800000E-01   12.0110           0
     15119 MEMB     115      POPC     H11A     HAL2     0.900000E-01   1.00800           0
     15120 MEMB     115      POPC     H11B     HAL2     0.900000E-01   1.00800           0
     15121 MEMB     115      POPC     P        PL        1.50000       30.9740           0
     15122 MEMB     115      POPC     O13      O2L     -0.780000       15.9994           0
     15123 MEMB     115      POPC     O14      O2L     -0.780000       15.9994           0
     15124 MEMB     115      POPC     O12      OSLP    -0.570000       15.9994           0
     15125 MEMB     115      POPC     O11      OSLP    -0.570000       15.9994           0
     15126 MEMB     115      POPC     C1       CTL2    -0.800000E-01   12.0110           0
     15127 MEMB     115      POPC     HA       HAL2     0.900000E-01   1.00800           0
     15128 MEMB     115      POPC     HB       HAL2     0.900000E-01   1.00800           0
     15129 MEMB     115      POPC     C2       CTL1     0.170000       12.0110           0
     15130 MEMB     115      POPC     HS       HAL1     0.900000E-01   1.00800           0
     15131 MEMB     115      POPC     O21      OSL     -0.490000       15.9994           0
     15132 MEMB     115      POPC     C21      CL       0.900000       12.0110           0
     15133 MEMB     115      POPC     O22      OBL     -0.630000       15.9994           0
     15134 MEMB     115      POPC     C22      CTL2    -0.220000       12.0110           0
     15135 MEMB     115      POPC     H2R      HAL2     0.900000E-01   1.00800           0
     15136 MEMB     115      POPC     H2S      HAL2     0.900000E-01   1.00800           0
     15137 MEMB     115      POPC     C3       CTL2     0.800000E-01   12.0110           0
     15138 MEMB     115      POPC     HX       HAL2     0.900000E-01   1.00800           0
     15139 MEMB     115      POPC     HY       HAL2     0.900000E-01   1.00800           0
     15140 MEMB     115      POPC     O31      OSL     -0.490000       15.9994           0
     15141 MEMB     115      POPC     C31      CL       0.900000       12.0110           0
     15142 MEMB     115      POPC     O32      OBL     -0.630000       15.9994           0
     15143 MEMB     115      POPC     C32      CTL2    -0.220000       12.0110           0
     15144 MEMB     115      POPC     H2X      HAL2     0.900000E-01   1.00800           0
     15145 MEMB     115      POPC     H2Y      HAL2     0.900000E-01   1.00800           0
     15146 MEMB     115      POPC     C23      CTL2    -0.180000       12.0110           0
     15147 MEMB     115      POPC     H3R      HAL2     0.900000E-01   1.00800           0
     15148 MEMB     115      POPC     H3S      HAL2     0.900000E-01   1.00800           0
     15149 MEMB     115      POPC     C24      CTL2    -0.180000       12.0110           0
     15150 MEMB     115      POPC     H4R      HAL2     0.900000E-01   1.00800           0
     15151 MEMB     115      POPC     H4S      HAL2     0.900000E-01   1.00800           0
     15152 MEMB     115      POPC     C25      CTL2    -0.180000       12.0110           0
     15153 MEMB     115      POPC     H5R      HAL2     0.900000E-01   1.00800           0
     15154 MEMB     115      POPC     H5S      HAL2     0.900000E-01   1.00800           0
     15155 MEMB     115      POPC     C26      CTL2    -0.180000       12.0110           0
     15156 MEMB     115      POPC     H6R      HAL2     0.900000E-01   1.00800           0
     15157 MEMB     115      POPC     H6S      HAL2     0.900000E-01   1.00800           0
     15158 MEMB     115      POPC     C27      CTL2    -0.180000       12.0110           0
     15159 MEMB     115      POPC     H7R      HAL2     0.900000E-01   1.00800           0
     15160 MEMB     115      POPC     H7S      HAL2     0.900000E-01   1.00800           0
     15161 MEMB     115      POPC     C28      CTL2    -0.180000       12.0110           0
     15162 MEMB     115      POPC     H8R      HAL2     0.900000E-01   1.00800           0
     15163 MEMB     115      POPC     H8S      HAL2     0.900000E-01   1.00800           0
     15164 MEMB     115      POPC     C29      CEL1    -0.150000       12.0110           0
     15165 MEMB     115      POPC     H91      HEL1     0.150000       1.00800           0
     15166 MEMB     115      POPC     C210     CEL1    -0.150000       12.0110           0
     15167 MEMB     115      POPC     H101     HEL1     0.150000       1.00800           0
     15168 MEMB     115      POPC     C211     CTL2    -0.180000       12.0110           0
     15169 MEMB     115      POPC     H11R     HAL2     0.900000E-01   1.00800           0
     15170 MEMB     115      POPC     H11S     HAL2     0.900000E-01   1.00800           0
     15171 MEMB     115      POPC     C212     CTL2    -0.180000       12.0110           0
     15172 MEMB     115      POPC     H12R     HAL2     0.900000E-01   1.00800           0
     15173 MEMB     115      POPC     H12S     HAL2     0.900000E-01   1.00800           0
     15174 MEMB     115      POPC     C213     CTL2    -0.180000       12.0110           0
     15175 MEMB     115      POPC     H13R     HAL2     0.900000E-01   1.00800           0
     15176 MEMB     115      POPC     H13S     HAL2     0.900000E-01   1.00800           0
     15177 MEMB     115      POPC     C214     CTL2    -0.180000       12.0110           0
     15178 MEMB     115      POPC     H14R     HAL2     0.900000E-01   1.00800           0
     15179 MEMB     115      POPC     H14S     HAL2     0.900000E-01   1.00800           0
     15180 MEMB     115      POPC     C215     CTL2    -0.180000       12.0110           0
     15181 MEMB     115      POPC     H15R     HAL2     0.900000E-01   1.00800           0
     15182 MEMB     115      POPC     H15S     HAL2     0.900000E-01   1.00800           0
     15183 MEMB     115      POPC     C216     CTL2    -0.180000       12.0110           0
     15184 MEMB     115      POPC     H16R     HAL2     0.900000E-01   1.00800           0
     15185 MEMB     115      POPC     H16S     HAL2     0.900000E-01   1.00800           0
     15186 MEMB     115      POPC     C217     CTL2    -0.180000       12.0110           0
     15187 MEMB     115      POPC     H17R     HAL2     0.900000E-01   1.00800           0
     15188 MEMB     115      POPC     H17S     HAL2     0.900000E-01   1.00800           0
     15189 MEMB     115      POPC     C218     CTL3    -0.270000       12.0110           0
     15190 MEMB     115      POPC     H18R     HAL3     0.900000E-01   1.00800           0
     15191 MEMB     115      POPC     H18S     HAL3     0.900000E-01   1.00800           0
     15192 MEMB     115      POPC     H18T     HAL3     0.900000E-01   1.00800           0
     15193 MEMB     115      POPC     C33      CTL2    -0.180000       12.0110           0
     15194 MEMB     115      POPC     H3X      HAL2     0.900000E-01   1.00800           0
     15195 MEMB     115      POPC     H3Y      HAL2     0.900000E-01   1.00800           0
     15196 MEMB     115      POPC     C34      CTL2    -0.180000       12.0110           0
     15197 MEMB     115      POPC     H4X      HAL2     0.900000E-01   1.00800           0
     15198 MEMB     115      POPC     H4Y      HAL2     0.900000E-01   1.00800           0
     15199 MEMB     115      POPC     C35      CTL2    -0.180000       12.0110           0
     15200 MEMB     115      POPC     H5X      HAL2     0.900000E-01   1.00800           0
     15201 MEMB     115      POPC     H5Y      HAL2     0.900000E-01   1.00800           0
     15202 MEMB     115      POPC     C36      CTL2    -0.180000       12.0110           0
     15203 MEMB     115      POPC     H6X      HAL2     0.900000E-01   1.00800           0
     15204 MEMB     115      POPC     H6Y      HAL2     0.900000E-01   1.00800           0
     15205 MEMB     115      POPC     C37      CTL2    -0.180000       12.0110           0
     15206 MEMB     115      POPC     H7X      HAL2     0.900000E-01   1.00800           0
     15207 MEMB     115      POPC     H7Y      HAL2     0.900000E-01   1.00800           0
     15208 MEMB     115      POPC     C38      CTL2    -0.180000       12.0110           0
     15209 MEMB     115      POPC     H8X      HAL2     0.900000E-01   1.00800           0
     15210 MEMB     115      POPC     H8Y      HAL2     0.900000E-01   1.00800           0
     15211 MEMB     115      POPC     C39      CTL2    -0.180000       12.0110           0
     15212 MEMB     115      POPC     H9X      HAL2     0.900000E-01   1.00800           0
     15213 MEMB     115      POPC     H9Y      HAL2     0.900000E-01   1.00800           0
     15214 MEMB     115      POPC     C310     CTL2    -0.180000       12.0110           0
     15215 MEMB     115      POPC     H10X     HAL2     0.900000E-01   1.00800           0
     15216 MEMB     115      POPC     H10Y     HAL2     0.900000E-01   1.00800           0
     15217 MEMB     115      POPC     C311     CTL2    -0.180000       12.0110           0
     15218 MEMB     115      POPC     H11X     HAL2     0.900000E-01   1.00800           0
     15219 MEMB     115      POPC     H11Y     HAL2     0.900000E-01   1.00800           0
     15220 MEMB     115      POPC     C312     CTL2    -0.180000       12.0110           0
     15221 MEMB     115      POPC     H12X     HAL2     0.900000E-01   1.00800           0
     15222 MEMB     115      POPC     H12Y     HAL2     0.900000E-01   1.00800           0
     15223 MEMB     115      POPC     C313     CTL2    -0.180000       12.0110           0
     15224 MEMB     115      POPC     H13X     HAL2     0.900000E-01   1.00800           0
     15225 MEMB     115      POPC     H13Y     HAL2     0.900000E-01   1.00800           0
     15226 MEMB     115      POPC     C314     CTL2    -0.180000       12.0110           0
     15227 MEMB     115      POPC     H14X     HAL2     0.900000E-01   1.00800           0
     15228 MEMB     115      POPC     H14Y     HAL2     0.900000E-01   1.00800           0
     15229 MEMB     115      POPC     C315     CTL2    -0.180000       12.0110           0
     15230 MEMB     115      POPC     H15X     HAL2     0.900000E-01   1.00800           0
     15231 MEMB     115      POPC     H15Y     HAL2     0.900000E-01   1.00800           0
     15232 MEMB     115      POPC     C316     CTL3    -0.270000       12.0110           0
     15233 MEMB     115      POPC     H16X     HAL3     0.900000E-01   1.00800           0
     15234 MEMB     115      POPC     H16Y     HAL3     0.900000E-01   1.00800           0
     15235 MEMB     115      POPC     H16Z     HAL3     0.900000E-01   1.00800           0
     15236 MEMB     116      POPC     N        NTL     -0.600000       14.0070           0
     15237 MEMB     116      POPC     C12      CTL2    -0.100000       12.0110           0
     15238 MEMB     116      POPC     H12A     HL       0.250000       1.00800           0
     15239 MEMB     116      POPC     H12B     HL       0.250000       1.00800           0
     15240 MEMB     116      POPC     C13      CTL5    -0.350000       12.0110           0
     15241 MEMB     116      POPC     H13A     HL       0.250000       1.00800           0
     15242 MEMB     116      POPC     H13B     HL       0.250000       1.00800           0
     15243 MEMB     116      POPC     H13C     HL       0.250000       1.00800           0
     15244 MEMB     116      POPC     C14      CTL5    -0.350000       12.0110           0
     15245 MEMB     116      POPC     H14A     HL       0.250000       1.00800           0
     15246 MEMB     116      POPC     H14B     HL       0.250000       1.00800           0
     15247 MEMB     116      POPC     H14C     HL       0.250000       1.00800           0
     15248 MEMB     116      POPC     C15      CTL5    -0.350000       12.0110           0
     15249 MEMB     116      POPC     H15A     HL       0.250000       1.00800           0
     15250 MEMB     116      POPC     H15B     HL       0.250000       1.00800           0
     15251 MEMB     116      POPC     H15C     HL       0.250000       1.00800           0
     15252 MEMB     116      POPC     C11      CTL2    -0.800000E-01   12.0110           0
     15253 MEMB     116      POPC     H11A     HAL2     0.900000E-01   1.00800           0
     15254 MEMB     116      POPC     H11B     HAL2     0.900000E-01   1.00800           0
     15255 MEMB     116      POPC     P        PL        1.50000       30.9740           0
     15256 MEMB     116      POPC     O13      O2L     -0.780000       15.9994           0
     15257 MEMB     116      POPC     O14      O2L     -0.780000       15.9994           0
     15258 MEMB     116      POPC     O12      OSLP    -0.570000       15.9994           0
     15259 MEMB     116      POPC     O11      OSLP    -0.570000       15.9994           0
     15260 MEMB     116      POPC     C1       CTL2    -0.800000E-01   12.0110           0
     15261 MEMB     116      POPC     HA       HAL2     0.900000E-01   1.00800           0
     15262 MEMB     116      POPC     HB       HAL2     0.900000E-01   1.00800           0
     15263 MEMB     116      POPC     C2       CTL1     0.170000       12.0110           0
     15264 MEMB     116      POPC     HS       HAL1     0.900000E-01   1.00800           0
     15265 MEMB     116      POPC     O21      OSL     -0.490000       15.9994           0
     15266 MEMB     116      POPC     C21      CL       0.900000       12.0110           0
     15267 MEMB     116      POPC     O22      OBL     -0.630000       15.9994           0
     15268 MEMB     116      POPC     C22      CTL2    -0.220000       12.0110           0
     15269 MEMB     116      POPC     H2R      HAL2     0.900000E-01   1.00800           0
     15270 MEMB     116      POPC     H2S      HAL2     0.900000E-01   1.00800           0
     15271 MEMB     116      POPC     C3       CTL2     0.800000E-01   12.0110           0
     15272 MEMB     116      POPC     HX       HAL2     0.900000E-01   1.00800           0
     15273 MEMB     116      POPC     HY       HAL2     0.900000E-01   1.00800           0
     15274 MEMB     116      POPC     O31      OSL     -0.490000       15.9994           0
     15275 MEMB     116      POPC     C31      CL       0.900000       12.0110           0
     15276 MEMB     116      POPC     O32      OBL     -0.630000       15.9994           0
     15277 MEMB     116      POPC     C32      CTL2    -0.220000       12.0110           0
     15278 MEMB     116      POPC     H2X      HAL2     0.900000E-01   1.00800           0
     15279 MEMB     116      POPC     H2Y      HAL2     0.900000E-01   1.00800           0
     15280 MEMB     116      POPC     C23      CTL2    -0.180000       12.0110           0
     15281 MEMB     116      POPC     H3R      HAL2     0.900000E-01   1.00800           0
     15282 MEMB     116      POPC     H3S      HAL2     0.900000E-01   1.00800           0
     15283 MEMB     116      POPC     C24      CTL2    -0.180000       12.0110           0
     15284 MEMB     116      POPC     H4R      HAL2     0.900000E-01   1.00800           0
     15285 MEMB     116      POPC     H4S      HAL2     0.900000E-01   1.00800           0
     15286 MEMB     116      POPC     C25      CTL2    -0.180000       12.0110           0
     15287 MEMB     116      POPC     H5R      HAL2     0.900000E-01   1.00800           0
     15288 MEMB     116      POPC     H5S      HAL2     0.900000E-01   1.00800           0
     15289 MEMB     116      POPC     C26      CTL2    -0.180000       12.0110           0
     15290 MEMB     116      POPC     H6R      HAL2     0.900000E-01   1.00800           0
     15291 MEMB     116      POPC     H6S      HAL2     0.900000E-01   1.00800           0
     15292 MEMB     116      POPC     C27      CTL2    -0.180000       12.0110           0
     15293 MEMB     116      POPC     H7R      HAL2     0.900000E-01   1.00800           0
     15294 MEMB     116      POPC     H7S      HAL2     0.900000E-01   1.00800           0
     15295 MEMB     116      POPC     C28      CTL2    -0.180000       12.0110           0
     15296 MEMB     116      POPC     H8R      HAL2     0.900000E-01   1.00800           0
     15297 MEMB     116      POPC     H8S      HAL2     0.900000E-01   1.00800           0
     15298 MEMB     116      POPC     C29      CEL1    -0.150000       12.0110           0
     15299 MEMB     116      POPC     H91      HEL1     0.150000       1.00800           0
     15300 MEMB     116      POPC     C210     CEL1    -0.150000       12.0110           0
     15301 MEMB     116      POPC     H101     HEL1     0.150000       1.00800           0
     15302 MEMB     116      POPC     C211     CTL2    -0.180000       12.0110           0
     15303 MEMB     116      POPC     H11R     HAL2     0.900000E-01   1.00800           0
     15304 MEMB     116      POPC     H11S     HAL2     0.900000E-01   1.00800           0
     15305 MEMB     116      POPC     C212     CTL2    -0.180000       12.0110           0
     15306 MEMB     116      POPC     H12R     HAL2     0.900000E-01   1.00800           0
     15307 MEMB     116      POPC     H12S     HAL2     0.900000E-01   1.00800           0
     15308 MEMB     116      POPC     C213     CTL2    -0.180000       12.0110           0
     15309 MEMB     116      POPC     H13R     HAL2     0.900000E-01   1.00800           0
     15310 MEMB     116      POPC     H13S     HAL2     0.900000E-01   1.00800           0
     15311 MEMB     116      POPC     C214     CTL2    -0.180000       12.0110           0
     15312 MEMB     116      POPC     H14R     HAL2     0.900000E-01   1.00800           0
     15313 MEMB     116      POPC     H14S     HAL2     0.900000E-01   1.00800           0
     15314 MEMB     116      POPC     C215     CTL2    -0.180000       12.0110           0
     15315 MEMB     116      POPC     H15R     HAL2     0.900000E-01   1.00800           0
     15316 MEMB     116      POPC     H15S     HAL2     0.900000E-01   1.00800           0
     15317 MEMB     116      POPC     C216     CTL2    -0.180000       12.0110           0
     15318 MEMB     116      POPC     H16R     HAL2     0.900000E-01   1.00800           0
     15319 MEMB     116      POPC     H16S     HAL2     0.900000E-01   1.00800           0
     15320 MEMB     116      POPC     C217     CTL2    -0.180000       12.0110           0
     15321 MEMB     116      POPC     H17R     HAL2     0.900000E-01   1.00800           0
     15322 MEMB     116      POPC     H17S     HAL2     0.900000E-01   1.00800           0
     15323 MEMB     116      POPC     C218     CTL3    -0.270000       12.0110           0
     15324 MEMB     116      POPC     H18R     HAL3     0.900000E-01   1.00800           0
     15325 MEMB     116      POPC     H18S     HAL3     0.900000E-01   1.00800           0
     15326 MEMB     116      POPC     H18T     HAL3     0.900000E-01   1.00800           0
     15327 MEMB     116      POPC     C33      CTL2    -0.180000       12.0110           0
     15328 MEMB     116      POPC     H3X      HAL2     0.900000E-01   1.00800           0
     15329 MEMB     116      POPC     H3Y      HAL2     0.900000E-01   1.00800           0
     15330 MEMB     116      POPC     C34      CTL2    -0.180000       12.0110           0
     15331 MEMB     116      POPC     H4X      HAL2     0.900000E-01   1.00800           0
     15332 MEMB     116      POPC     H4Y      HAL2     0.900000E-01   1.00800           0
     15333 MEMB     116      POPC     C35      CTL2    -0.180000       12.0110           0
     15334 MEMB     116      POPC     H5X      HAL2     0.900000E-01   1.00800           0
     15335 MEMB     116      POPC     H5Y      HAL2     0.900000E-01   1.00800           0
     15336 MEMB     116      POPC     C36      CTL2    -0.180000       12.0110           0
     15337 MEMB     116      POPC     H6X      HAL2     0.900000E-01   1.00800           0
     15338 MEMB     116      POPC     H6Y      HAL2     0.900000E-01   1.00800           0
     15339 MEMB     116      POPC     C37      CTL2    -0.180000       12.0110           0
     15340 MEMB     116      POPC     H7X      HAL2     0.900000E-01   1.00800           0
     15341 MEMB     116      POPC     H7Y      HAL2     0.900000E-01   1.00800           0
     15342 MEMB     116      POPC     C38      CTL2    -0.180000       12.0110           0
     15343 MEMB     116      POPC     H8X      HAL2     0.900000E-01   1.00800           0
     15344 MEMB     116      POPC     H8Y      HAL2     0.900000E-01   1.00800           0
     15345 MEMB     116      POPC     C39      CTL2    -0.180000       12.0110           0
     15346 MEMB     116      POPC     H9X      HAL2     0.900000E-01   1.00800           0
     15347 MEMB     116      POPC     H9Y      HAL2     0.900000E-01   1.00800           0
     15348 MEMB     116      POPC     C310     CTL2    -0.180000       12.0110           0
     15349 MEMB     116      POPC     H10X     HAL2     0.900000E-01   1.00800           0
     15350 MEMB     116      POPC     H10Y     HAL2     0.900000E-01   1.00800           0
     15351 MEMB     116      POPC     C311     CTL2    -0.180000       12.0110           0
     15352 MEMB     116      POPC     H11X     HAL2     0.900000E-01   1.00800           0
     15353 MEMB     116      POPC     H11Y     HAL2     0.900000E-01   1.00800           0
     15354 MEMB     116      POPC     C312     CTL2    -0.180000       12.0110           0
     15355 MEMB     116      POPC     H12X     HAL2     0.900000E-01   1.00800           0
     15356 MEMB     116      POPC     H12Y     HAL2     0.900000E-01   1.00800           0
     15357 MEMB     116      POPC     C313     CTL2    -0.180000       12.0110           0
     15358 MEMB     116      POPC     H13X     HAL2     0.900000E-01   1.00800           0
     15359 MEMB     116      POPC     H13Y     HAL2     0.900000E-01   1.00800           0
     15360 MEMB     116      POPC     C314     CTL2    -0.180000       12.0110           0
     15361 MEMB     116      POPC     H14X     HAL2     0.900000E-01   1.00800           0
     15362 MEMB     116      POPC     H14Y     HAL2     0.900000E-01   1.00800           0
     15363 MEMB     116      POPC     C315     CTL2    -0.180000       12.0110           0
     15364 MEMB     116      POPC     H15X     HAL2     0.900000E-01   1.00800           0
     15365 MEMB     116      POPC     H15Y     HAL2     0.900000E-01   1.00800           0
     15366 MEMB     116      POPC     C316     CTL3    -0.270000       12.0110           0
     15367 MEMB     116      POPC     H16X     HAL3     0.900000E-01   1.00800           0
     15368 MEMB     116      POPC     H16Y     HAL3     0.900000E-01   1.00800           0
     15369 MEMB     116      POPC     H16Z     HAL3     0.900000E-01   1.00800           0
     15370 MEMB     117      POPC     N        NTL     -0.600000       14.0070           0
     15371 MEMB     117      POPC     C12      CTL2    -0.100000       12.0110           0
     15372 MEMB     117      POPC     H12A     HL       0.250000       1.00800           0
     15373 MEMB     117      POPC     H12B     HL       0.250000       1.00800           0
     15374 MEMB     117      POPC     C13      CTL5    -0.350000       12.0110           0
     15375 MEMB     117      POPC     H13A     HL       0.250000       1.00800           0
     15376 MEMB     117      POPC     H13B     HL       0.250000       1.00800           0
     15377 MEMB     117      POPC     H13C     HL       0.250000       1.00800           0
     15378 MEMB     117      POPC     C14      CTL5    -0.350000       12.0110           0
     15379 MEMB     117      POPC     H14A     HL       0.250000       1.00800           0
     15380 MEMB     117      POPC     H14B     HL       0.250000       1.00800           0
     15381 MEMB     117      POPC     H14C     HL       0.250000       1.00800           0
     15382 MEMB     117      POPC     C15      CTL5    -0.350000       12.0110           0
     15383 MEMB     117      POPC     H15A     HL       0.250000       1.00800           0
     15384 MEMB     117      POPC     H15B     HL       0.250000       1.00800           0
     15385 MEMB     117      POPC     H15C     HL       0.250000       1.00800           0
     15386 MEMB     117      POPC     C11      CTL2    -0.800000E-01   12.0110           0
     15387 MEMB     117      POPC     H11A     HAL2     0.900000E-01   1.00800           0
     15388 MEMB     117      POPC     H11B     HAL2     0.900000E-01   1.00800           0
     15389 MEMB     117      POPC     P        PL        1.50000       30.9740           0
     15390 MEMB     117      POPC     O13      O2L     -0.780000       15.9994           0
     15391 MEMB     117      POPC     O14      O2L     -0.780000       15.9994           0
     15392 MEMB     117      POPC     O12      OSLP    -0.570000       15.9994           0
     15393 MEMB     117      POPC     O11      OSLP    -0.570000       15.9994           0
     15394 MEMB     117      POPC     C1       CTL2    -0.800000E-01   12.0110           0
     15395 MEMB     117      POPC     HA       HAL2     0.900000E-01   1.00800           0
     15396 MEMB     117      POPC     HB       HAL2     0.900000E-01   1.00800           0
     15397 MEMB     117      POPC     C2       CTL1     0.170000       12.0110           0
     15398 MEMB     117      POPC     HS       HAL1     0.900000E-01   1.00800           0
     15399 MEMB     117      POPC     O21      OSL     -0.490000       15.9994           0
     15400 MEMB     117      POPC     C21      CL       0.900000       12.0110           0
     15401 MEMB     117      POPC     O22      OBL     -0.630000       15.9994           0
     15402 MEMB     117      POPC     C22      CTL2    -0.220000       12.0110           0
     15403 MEMB     117      POPC     H2R      HAL2     0.900000E-01   1.00800           0
     15404 MEMB     117      POPC     H2S      HAL2     0.900000E-01   1.00800           0
     15405 MEMB     117      POPC     C3       CTL2     0.800000E-01   12.0110           0
     15406 MEMB     117      POPC     HX       HAL2     0.900000E-01   1.00800           0
     15407 MEMB     117      POPC     HY       HAL2     0.900000E-01   1.00800           0
     15408 MEMB     117      POPC     O31      OSL     -0.490000       15.9994           0
     15409 MEMB     117      POPC     C31      CL       0.900000       12.0110           0
     15410 MEMB     117      POPC     O32      OBL     -0.630000       15.9994           0
     15411 MEMB     117      POPC     C32      CTL2    -0.220000       12.0110           0
     15412 MEMB     117      POPC     H2X      HAL2     0.900000E-01   1.00800           0
     15413 MEMB     117      POPC     H2Y      HAL2     0.900000E-01   1.00800           0
     15414 MEMB     117      POPC     C23      CTL2    -0.180000       12.0110           0
     15415 MEMB     117      POPC     H3R      HAL2     0.900000E-01   1.00800           0
     15416 MEMB     117      POPC     H3S      HAL2     0.900000E-01   1.00800           0
     15417 MEMB     117      POPC     C24      CTL2    -0.180000       12.0110           0
     15418 MEMB     117      POPC     H4R      HAL2     0.900000E-01   1.00800           0
     15419 MEMB     117      POPC     H4S      HAL2     0.900000E-01   1.00800           0
     15420 MEMB     117      POPC     C25      CTL2    -0.180000       12.0110           0
     15421 MEMB     117      POPC     H5R      HAL2     0.900000E-01   1.00800           0
     15422 MEMB     117      POPC     H5S      HAL2     0.900000E-01   1.00800           0
     15423 MEMB     117      POPC     C26      CTL2    -0.180000       12.0110           0
     15424 MEMB     117      POPC     H6R      HAL2     0.900000E-01   1.00800           0
     15425 MEMB     117      POPC     H6S      HAL2     0.900000E-01   1.00800           0
     15426 MEMB     117      POPC     C27      CTL2    -0.180000       12.0110           0
     15427 MEMB     117      POPC     H7R      HAL2     0.900000E-01   1.00800           0
     15428 MEMB     117      POPC     H7S      HAL2     0.900000E-01   1.00800           0
     15429 MEMB     117      POPC     C28      CTL2    -0.180000       12.0110           0
     15430 MEMB     117      POPC     H8R      HAL2     0.900000E-01   1.00800           0
     15431 MEMB     117      POPC     H8S      HAL2     0.900000E-01   1.00800           0
     15432 MEMB     117      POPC     C29      CEL1    -0.150000       12.0110           0
     15433 MEMB     117      POPC     H91      HEL1     0.150000       1.00800           0
     15434 MEMB     117      POPC     C210     CEL1    -0.150000       12.0110           0
     15435 MEMB     117      POPC     H101     HEL1     0.150000       1.00800           0
     15436 MEMB     117      POPC     C211     CTL2    -0.180000       12.0110           0
     15437 MEMB     117      POPC     H11R     HAL2     0.900000E-01   1.00800           0
     15438 MEMB     117      POPC     H11S     HAL2     0.900000E-01   1.00800           0
     15439 MEMB     117      POPC     C212     CTL2    -0.180000       12.0110           0
     15440 MEMB     117      POPC     H12R     HAL2     0.900000E-01   1.00800           0
     15441 MEMB     117      POPC     H12S     HAL2     0.900000E-01   1.00800           0
     15442 MEMB     117      POPC     C213     CTL2    -0.180000       12.0110           0
     15443 MEMB     117      POPC     H13R     HAL2     0.900000E-01   1.00800           0
     15444 MEMB     117      POPC     H13S     HAL2     0.900000E-01   1.00800           0
     15445 MEMB     117      POPC     C214     CTL2    -0.180000       12.0110           0
     15446 MEMB     117      POPC     H14R     HAL2     0.900000E-01   1.00800           0
     15447 MEMB     117      POPC     H14S     HAL2     0.900000E-01   1.00800           0
     15448 MEMB     117      POPC     C215     CTL2    -0.180000       12.0110           0
     15449 MEMB     117      POPC     H15R     HAL2     0.900000E-01   1.00800           0
     15450 MEMB     117      POPC     H15S     HAL2     0.900000E-01   1.00800           0
     15451 MEMB     117      POPC     C216     CTL2    -0.180000       12.0110           0
     15452 MEMB     117      POPC     H16R     HAL2     0.900000E-01   1.00800           0
     15453 MEMB     117      POPC     H16S     HAL2     0.900000E-01   1.00800           0
     15454 MEMB     117      POPC     C217     CTL2    -0.180000       12.0110           0
     15455 MEMB     117      POPC     H17R     HAL2     0.900000E-01   1.00800           0
     15456 MEMB     117      POPC     H17S     HAL2     0.900000E-01   1.00800           0
     15457 MEMB     117      POPC     C218     CTL3    -0.270000       12.0110           0
     15458 MEMB     117      POPC     H18R     HAL3     0.900000E-01   1.00800           0
     15459 MEMB     117      POPC     H18S     HAL3     0.900000E-01   1.00800           0
     15460 MEMB     117      POPC     H18T     HAL3     0.900000E-01   1.00800           0
     15461 MEMB     117      POPC     C33      CTL2    -0.180000       12.0110           0
     15462 MEMB     117      POPC     H3X      HAL2     0.900000E-01   1.00800           0
     15463 MEMB     117      POPC     H3Y      HAL2     0.900000E-01   1.00800           0
     15464 MEMB     117      POPC     C34      CTL2    -0.180000       12.0110           0
     15465 MEMB     117      POPC     H4X      HAL2     0.900000E-01   1.00800           0
     15466 MEMB     117      POPC     H4Y      HAL2     0.900000E-01   1.00800           0
     15467 MEMB     117      POPC     C35      CTL2    -0.180000       12.0110           0
     15468 MEMB     117      POPC     H5X      HAL2     0.900000E-01   1.00800           0
     15469 MEMB     117      POPC     H5Y      HAL2     0.900000E-01   1.00800           0
     15470 MEMB     117      POPC     C36      CTL2    -0.180000       12.0110           0
     15471 MEMB     117      POPC     H6X      HAL2     0.900000E-01   1.00800           0
     15472 MEMB     117      POPC     H6Y      HAL2     0.900000E-01   1.00800           0
     15473 MEMB     117      POPC     C37      CTL2    -0.180000       12.0110           0
     15474 MEMB     117      POPC     H7X      HAL2     0.900000E-01   1.00800           0
     15475 MEMB     117      POPC     H7Y      HAL2     0.900000E-01   1.00800           0
     15476 MEMB     117      POPC     C38      CTL2    -0.180000       12.0110           0
     15477 MEMB     117      POPC     H8X      HAL2     0.900000E-01   1.00800           0
     15478 MEMB     117      POPC     H8Y      HAL2     0.900000E-01   1.00800           0
     15479 MEMB     117      POPC     C39      CTL2    -0.180000       12.0110           0
     15480 MEMB     117      POPC     H9X      HAL2     0.900000E-01   1.00800           0
     15481 MEMB     117      POPC     H9Y      HAL2     0.900000E-01   1.00800           0
     15482 MEMB     117      POPC     C310     CTL2    -0.180000       12.0110           0
     15483 MEMB     117      POPC     H10X     HAL2     0.900000E-01   1.00800           0
     15484 MEMB     117      POPC     H10Y     HAL2     0.900000E-01   1.00800           0
     15485 MEMB     117      POPC     C311     CTL2    -0.180000       12.0110           0
     15486 MEMB     117      POPC     H11X     HAL2     0.900000E-01   1.00800           0
     15487 MEMB     117      POPC     H11Y     HAL2     0.900000E-01   1.00800           0
     15488 MEMB     117      POPC     C312     CTL2    -0.180000       12.0110           0
     15489 MEMB     117      POPC     H12X     HAL2     0.900000E-01   1.00800           0
     15490 MEMB     117      POPC     H12Y     HAL2     0.900000E-01   1.00800           0
     15491 MEMB     117      POPC     C313     CTL2    -0.180000       12.0110           0
     15492 MEMB     117      POPC     H13X     HAL2     0.900000E-01   1.00800           0
     15493 MEMB     117      POPC     H13Y     HAL2     0.900000E-01   1.00800           0
     15494 MEMB     117      POPC     C314     CTL2    -0.180000       12.0110           0
     15495 MEMB     117      POPC     H14X     HAL2     0.900000E-01   1.00800           0
     15496 MEMB     117      POPC     H14Y     HAL2     0.900000E-01   1.00800           0
     15497 MEMB     117      POPC     C315     CTL2    -0.180000       12.0110           0
     15498 MEMB     117      POPC     H15X     HAL2     0.900000E-01   1.00800           0
     15499 MEMB     117      POPC     H15Y     HAL2     0.900000E-01   1.00800           0
     15500 MEMB     117      POPC     C316     CTL3    -0.270000       12.0110           0
     15501 MEMB     117      POPC     H16X     HAL3     0.900000E-01   1.00800           0
     15502 MEMB     117      POPC     H16Y     HAL3     0.900000E-01   1.00800           0
     15503 MEMB     117      POPC     H16Z     HAL3     0.900000E-01   1.00800           0
     15504 MEMB     118      POPS     N        NH3L    -0.300000       14.0070           0
     15505 MEMB     118      POPS     HN1      HCL      0.330000       1.00800           0
     15506 MEMB     118      POPS     HN2      HCL      0.330000       1.00800           0
     15507 MEMB     118      POPS     HN3      HCL      0.330000       1.00800           0
     15508 MEMB     118      POPS     C12      CTL1     0.210000       12.0110           0
     15509 MEMB     118      POPS     H12A     HBL      0.100000       1.00800           0
     15510 MEMB     118      POPS     C13      CCL      0.340000       12.0110           0
     15511 MEMB     118      POPS     O13A     OCL     -0.670000       15.9994           0
     15512 MEMB     118      POPS     O13B     OCL     -0.670000       15.9994           0
     15513 MEMB     118      POPS     C11      CTL2    -0.800000E-01   12.0110           0
     15514 MEMB     118      POPS     H11A     HAL2     0.900000E-01   1.00800           0
     15515 MEMB     118      POPS     H11B     HAL2     0.900000E-01   1.00800           0
     15516 MEMB     118      POPS     P        PL        1.50000       30.9740           0
     15517 MEMB     118      POPS     O13      O2L     -0.780000       15.9994           0
     15518 MEMB     118      POPS     O14      O2L     -0.780000       15.9994           0
     15519 MEMB     118      POPS     O12      OSLP    -0.570000       15.9994           0
     15520 MEMB     118      POPS     O11      OSLP    -0.570000       15.9994           0
     15521 MEMB     118      POPS     C1       CTL2    -0.800000E-01   12.0110           0
     15522 MEMB     118      POPS     HA       HAL2     0.900000E-01   1.00800           0
     15523 MEMB     118      POPS     HB       HAL2     0.900000E-01   1.00800           0
     15524 MEMB     118      POPS     C2       CTL1     0.170000       12.0110           0
     15525 MEMB     118      POPS     HS       HAL1     0.900000E-01   1.00800           0
     15526 MEMB     118      POPS     O21      OSL     -0.490000       15.9994           0
     15527 MEMB     118      POPS     C21      CL       0.900000       12.0110           0
     15528 MEMB     118      POPS     O22      OBL     -0.630000       15.9994           0
     15529 MEMB     118      POPS     C22      CTL2    -0.220000       12.0110           0
     15530 MEMB     118      POPS     H2R      HAL2     0.900000E-01   1.00800           0
     15531 MEMB     118      POPS     H2S      HAL2     0.900000E-01   1.00800           0
     15532 MEMB     118      POPS     C3       CTL2     0.800000E-01   12.0110           0
     15533 MEMB     118      POPS     HX       HAL2     0.900000E-01   1.00800           0
     15534 MEMB     118      POPS     HY       HAL2     0.900000E-01   1.00800           0
     15535 MEMB     118      POPS     O31      OSL     -0.490000       15.9994           0
     15536 MEMB     118      POPS     C31      CL       0.900000       12.0110           0
     15537 MEMB     118      POPS     O32      OBL     -0.630000       15.9994           0
     15538 MEMB     118      POPS     C32      CTL2    -0.220000       12.0110           0
     15539 MEMB     118      POPS     H2X      HAL2     0.900000E-01   1.00800           0
     15540 MEMB     118      POPS     H2Y      HAL2     0.900000E-01   1.00800           0
     15541 MEMB     118      POPS     C23      CTL2    -0.180000       12.0110           0
     15542 MEMB     118      POPS     H3R      HAL2     0.900000E-01   1.00800           0
     15543 MEMB     118      POPS     H3S      HAL2     0.900000E-01   1.00800           0
     15544 MEMB     118      POPS     C24      CTL2    -0.180000       12.0110           0
     15545 MEMB     118      POPS     H4R      HAL2     0.900000E-01   1.00800           0
     15546 MEMB     118      POPS     H4S      HAL2     0.900000E-01   1.00800           0
     15547 MEMB     118      POPS     C25      CTL2    -0.180000       12.0110           0
     15548 MEMB     118      POPS     H5R      HAL2     0.900000E-01   1.00800           0
     15549 MEMB     118      POPS     H5S      HAL2     0.900000E-01   1.00800           0
     15550 MEMB     118      POPS     C26      CTL2    -0.180000       12.0110           0
     15551 MEMB     118      POPS     H6R      HAL2     0.900000E-01   1.00800           0
     15552 MEMB     118      POPS     H6S      HAL2     0.900000E-01   1.00800           0
     15553 MEMB     118      POPS     C27      CTL2    -0.180000       12.0110           0
     15554 MEMB     118      POPS     H7R      HAL2     0.900000E-01   1.00800           0
     15555 MEMB     118      POPS     H7S      HAL2     0.900000E-01   1.00800           0
     15556 MEMB     118      POPS     C28      CTL2    -0.180000       12.0110           0
     15557 MEMB     118      POPS     H8R      HAL2     0.900000E-01   1.00800           0
     15558 MEMB     118      POPS     H8S      HAL2     0.900000E-01   1.00800           0
     15559 MEMB     118      POPS     C29      CEL1    -0.150000       12.0110           0
     15560 MEMB     118      POPS     H91      HEL1     0.150000       1.00800           0
     15561 MEMB     118      POPS     C210     CEL1    -0.150000       12.0110           0
     15562 MEMB     118      POPS     H101     HEL1     0.150000       1.00800           0
     15563 MEMB     118      POPS     C211     CTL2    -0.180000       12.0110           0
     15564 MEMB     118      POPS     H11R     HAL2     0.900000E-01   1.00800           0
     15565 MEMB     118      POPS     H11S     HAL2     0.900000E-01   1.00800           0
     15566 MEMB     118      POPS     C212     CTL2    -0.180000       12.0110           0
     15567 MEMB     118      POPS     H12R     HAL2     0.900000E-01   1.00800           0
     15568 MEMB     118      POPS     H12S     HAL2     0.900000E-01   1.00800           0
     15569 MEMB     118      POPS     C213     CTL2    -0.180000       12.0110           0
     15570 MEMB     118      POPS     H13R     HAL2     0.900000E-01   1.00800           0
     15571 MEMB     118      POPS     H13S     HAL2     0.900000E-01   1.00800           0
     15572 MEMB     118      POPS     C214     CTL2    -0.180000       12.0110           0
     15573 MEMB     118      POPS     H14R     HAL2     0.900000E-01   1.00800           0
     15574 MEMB     118      POPS     H14S     HAL2     0.900000E-01   1.00800           0
     15575 MEMB     118      POPS     C215     CTL2    -0.180000       12.0110           0
     15576 MEMB     118      POPS     H15R     HAL2     0.900000E-01   1.00800           0
     15577 MEMB     118      POPS     H15S     HAL2     0.900000E-01   1.00800           0
     15578 MEMB     118      POPS     C216     CTL2    -0.180000       12.0110           0
     15579 MEMB     118      POPS     H16R     HAL2     0.900000E-01   1.00800           0
     15580 MEMB     118      POPS     H16S     HAL2     0.900000E-01   1.00800           0
     15581 MEMB     118      POPS     C217     CTL2    -0.180000       12.0110           0
     15582 MEMB     118      POPS     H17R     HAL2     0.900000E-01   1.00800           0
     15583 MEMB     118      POPS     H17S     HAL2     0.900000E-01   1.00800           0
     15584 MEMB     118      POPS     C218     CTL3    -0.270000       12.0110           0
     15585 MEMB     118      POPS     H18R     HAL3     0.900000E-01   1.00800           0
     15586 MEMB     118      POPS     H18S     HAL3     0.900000E-01   1.00800           0
     15587 MEMB     118      POPS     H18T     HAL3     0.900000E-01   1.00800           0
     15588 MEMB     118      POPS     C33      CTL2    -0.180000       12.0110           0
     15589 MEMB     118      POPS     H3X      HAL2     0.900000E-01   1.00800           0
     15590 MEMB     118      POPS     H3Y      HAL2     0.900000E-01   1.00800           0
     15591 MEMB     118      POPS     C34      CTL2    -0.180000       12.0110           0
     15592 MEMB     118      POPS     H4X      HAL2     0.900000E-01   1.00800           0
     15593 MEMB     118      POPS     H4Y      HAL2     0.900000E-01   1.00800           0
     15594 MEMB     118      POPS     C35      CTL2    -0.180000       12.0110           0
     15595 MEMB     118      POPS     H5X      HAL2     0.900000E-01   1.00800           0
     15596 MEMB     118      POPS     H5Y      HAL2     0.900000E-01   1.00800           0
     15597 MEMB     118      POPS     C36      CTL2    -0.180000       12.0110           0
     15598 MEMB     118      POPS     H6X      HAL2     0.900000E-01   1.00800           0
     15599 MEMB     118      POPS     H6Y      HAL2     0.900000E-01   1.00800           0
     15600 MEMB     118      POPS     C37      CTL2    -0.180000       12.0110           0
     15601 MEMB     118      POPS     H7X      HAL2     0.900000E-01   1.00800           0
     15602 MEMB     118      POPS     H7Y      HAL2     0.900000E-01   1.00800           0
     15603 MEMB     118      POPS     C38      CTL2    -0.180000       12.0110           0
     15604 MEMB     118      POPS     H8X      HAL2     0.900000E-01   1.00800           0
     15605 MEMB     118      POPS     H8Y      HAL2     0.900000E-01   1.00800           0
     15606 MEMB     118      POPS     C39      CTL2    -0.180000       12.0110           0
     15607 MEMB     118      POPS     H9X      HAL2     0.900000E-01   1.00800           0
     15608 MEMB     118      POPS     H9Y      HAL2     0.900000E-01   1.00800           0
     15609 MEMB     118      POPS     C310     CTL2    -0.180000       12.0110           0
     15610 MEMB     118      POPS     H10X     HAL2     0.900000E-01   1.00800           0
     15611 MEMB     118      POPS     H10Y     HAL2     0.900000E-01   1.00800           0
     15612 MEMB     118      POPS     C311     CTL2    -0.180000       12.0110           0
     15613 MEMB     118      POPS     H11X     HAL2     0.900000E-01   1.00800           0
     15614 MEMB     118      POPS     H11Y     HAL2     0.900000E-01   1.00800           0
     15615 MEMB     118      POPS     C312     CTL2    -0.180000       12.0110           0
     15616 MEMB     118      POPS     H12X     HAL2     0.900000E-01   1.00800           0
     15617 MEMB     118      POPS     H12Y     HAL2     0.900000E-01   1.00800           0
     15618 MEMB     118      POPS     C313     CTL2    -0.180000       12.0110           0
     15619 MEMB     118      POPS     H13X     HAL2     0.900000E-01   1.00800           0
     15620 MEMB     118      POPS     H13Y     HAL2     0.900000E-01   1.00800           0
     15621 MEMB     118      POPS     C314     CTL2    -0.180000       12.0110           0
     15622 MEMB     118      POPS     H14X     HAL2     0.900000E-01   1.00800           0
     15623 MEMB     118      POPS     H14Y     HAL2     0.900000E-01   1.00800           0
     15624 MEMB     118      POPS     C315     CTL2    -0.180000       12.0110           0
     15625 MEMB     118      POPS     H15X     HAL2     0.900000E-01   1.00800           0
     15626 MEMB     118      POPS     H15Y     HAL2     0.900000E-01   1.00800           0
     15627 MEMB     118      POPS     C316     CTL3    -0.270000       12.0110           0
     15628 MEMB     118      POPS     H16X     HAL3     0.900000E-01   1.00800           0
     15629 MEMB     118      POPS     H16Y     HAL3     0.900000E-01   1.00800           0
     15630 MEMB     118      POPS     H16Z     HAL3     0.900000E-01   1.00800           0
     15631 MEMB     119      POPC     N        NTL     -0.600000       14.0070           0
     15632 MEMB     119      POPC     C12      CTL2    -0.100000       12.0110           0
     15633 MEMB     119      POPC     H12A     HL       0.250000       1.00800           0
     15634 MEMB     119      POPC     H12B     HL       0.250000       1.00800           0
     15635 MEMB     119      POPC     C13      CTL5    -0.350000       12.0110           0
     15636 MEMB     119      POPC     H13A     HL       0.250000       1.00800           0
     15637 MEMB     119      POPC     H13B     HL       0.250000       1.00800           0
     15638 MEMB     119      POPC     H13C     HL       0.250000       1.00800           0
     15639 MEMB     119      POPC     C14      CTL5    -0.350000       12.0110           0
     15640 MEMB     119      POPC     H14A     HL       0.250000       1.00800           0
     15641 MEMB     119      POPC     H14B     HL       0.250000       1.00800           0
     15642 MEMB     119      POPC     H14C     HL       0.250000       1.00800           0
     15643 MEMB     119      POPC     C15      CTL5    -0.350000       12.0110           0
     15644 MEMB     119      POPC     H15A     HL       0.250000       1.00800           0
     15645 MEMB     119      POPC     H15B     HL       0.250000       1.00800           0
     15646 MEMB     119      POPC     H15C     HL       0.250000       1.00800           0
     15647 MEMB     119      POPC     C11      CTL2    -0.800000E-01   12.0110           0
     15648 MEMB     119      POPC     H11A     HAL2     0.900000E-01   1.00800           0
     15649 MEMB     119      POPC     H11B     HAL2     0.900000E-01   1.00800           0
     15650 MEMB     119      POPC     P        PL        1.50000       30.9740           0
     15651 MEMB     119      POPC     O13      O2L     -0.780000       15.9994           0
     15652 MEMB     119      POPC     O14      O2L     -0.780000       15.9994           0
     15653 MEMB     119      POPC     O12      OSLP    -0.570000       15.9994           0
     15654 MEMB     119      POPC     O11      OSLP    -0.570000       15.9994           0
     15655 MEMB     119      POPC     C1       CTL2    -0.800000E-01   12.0110           0
     15656 MEMB     119      POPC     HA       HAL2     0.900000E-01   1.00800           0
     15657 MEMB     119      POPC     HB       HAL2     0.900000E-01   1.00800           0
     15658 MEMB     119      POPC     C2       CTL1     0.170000       12.0110           0
     15659 MEMB     119      POPC     HS       HAL1     0.900000E-01   1.00800           0
     15660 MEMB     119      POPC     O21      OSL     -0.490000       15.9994           0
     15661 MEMB     119      POPC     C21      CL       0.900000       12.0110           0
     15662 MEMB     119      POPC     O22      OBL     -0.630000       15.9994           0
     15663 MEMB     119      POPC     C22      CTL2    -0.220000       12.0110           0
     15664 MEMB     119      POPC     H2R      HAL2     0.900000E-01   1.00800           0
     15665 MEMB     119      POPC     H2S      HAL2     0.900000E-01   1.00800           0
     15666 MEMB     119      POPC     C3       CTL2     0.800000E-01   12.0110           0
     15667 MEMB     119      POPC     HX       HAL2     0.900000E-01   1.00800           0
     15668 MEMB     119      POPC     HY       HAL2     0.900000E-01   1.00800           0
     15669 MEMB     119      POPC     O31      OSL     -0.490000       15.9994           0
     15670 MEMB     119      POPC     C31      CL       0.900000       12.0110           0
     15671 MEMB     119      POPC     O32      OBL     -0.630000       15.9994           0
     15672 MEMB     119      POPC     C32      CTL2    -0.220000       12.0110           0
     15673 MEMB     119      POPC     H2X      HAL2     0.900000E-01   1.00800           0
     15674 MEMB     119      POPC     H2Y      HAL2     0.900000E-01   1.00800           0
     15675 MEMB     119      POPC     C23      CTL2    -0.180000       12.0110           0
     15676 MEMB     119      POPC     H3R      HAL2     0.900000E-01   1.00800           0
     15677 MEMB     119      POPC     H3S      HAL2     0.900000E-01   1.00800           0
     15678 MEMB     119      POPC     C24      CTL2    -0.180000       12.0110           0
     15679 MEMB     119      POPC     H4R      HAL2     0.900000E-01   1.00800           0
     15680 MEMB     119      POPC     H4S      HAL2     0.900000E-01   1.00800           0
     15681 MEMB     119      POPC     C25      CTL2    -0.180000       12.0110           0
     15682 MEMB     119      POPC     H5R      HAL2     0.900000E-01   1.00800           0
     15683 MEMB     119      POPC     H5S      HAL2     0.900000E-01   1.00800           0
     15684 MEMB     119      POPC     C26      CTL2    -0.180000       12.0110           0
     15685 MEMB     119      POPC     H6R      HAL2     0.900000E-01   1.00800           0
     15686 MEMB     119      POPC     H6S      HAL2     0.900000E-01   1.00800           0
     15687 MEMB     119      POPC     C27      CTL2    -0.180000       12.0110           0
     15688 MEMB     119      POPC     H7R      HAL2     0.900000E-01   1.00800           0
     15689 MEMB     119      POPC     H7S      HAL2     0.900000E-01   1.00800           0
     15690 MEMB     119      POPC     C28      CTL2    -0.180000       12.0110           0
     15691 MEMB     119      POPC     H8R      HAL2     0.900000E-01   1.00800           0
     15692 MEMB     119      POPC     H8S      HAL2     0.900000E-01   1.00800           0
     15693 MEMB     119      POPC     C29      CEL1    -0.150000       12.0110           0
     15694 MEMB     119      POPC     H91      HEL1     0.150000       1.00800           0
     15695 MEMB     119      POPC     C210     CEL1    -0.150000       12.0110           0
     15696 MEMB     119      POPC     H101     HEL1     0.150000       1.00800           0
     15697 MEMB     119      POPC     C211     CTL2    -0.180000       12.0110           0
     15698 MEMB     119      POPC     H11R     HAL2     0.900000E-01   1.00800           0
     15699 MEMB     119      POPC     H11S     HAL2     0.900000E-01   1.00800           0
     15700 MEMB     119      POPC     C212     CTL2    -0.180000       12.0110           0
     15701 MEMB     119      POPC     H12R     HAL2     0.900000E-01   1.00800           0
     15702 MEMB     119      POPC     H12S     HAL2     0.900000E-01   1.00800           0
     15703 MEMB     119      POPC     C213     CTL2    -0.180000       12.0110           0
     15704 MEMB     119      POPC     H13R     HAL2     0.900000E-01   1.00800           0
     15705 MEMB     119      POPC     H13S     HAL2     0.900000E-01   1.00800           0
     15706 MEMB     119      POPC     C214     CTL2    -0.180000       12.0110           0
     15707 MEMB     119      POPC     H14R     HAL2     0.900000E-01   1.00800           0
     15708 MEMB     119      POPC     H14S     HAL2     0.900000E-01   1.00800           0
     15709 MEMB     119      POPC     C215     CTL2    -0.180000       12.0110           0
     15710 MEMB     119      POPC     H15R     HAL2     0.900000E-01   1.00800           0
     15711 MEMB     119      POPC     H15S     HAL2     0.900000E-01   1.00800           0
     15712 MEMB     119      POPC     C216     CTL2    -0.180000       12.0110           0
     15713 MEMB     119      POPC     H16R     HAL2     0.900000E-01   1.00800           0
     15714 MEMB     119      POPC     H16S     HAL2     0.900000E-01   1.00800           0
     15715 MEMB     119      POPC     C217     CTL2    -0.180000       12.0110           0
     15716 MEMB     119      POPC     H17R     HAL2     0.900000E-01   1.00800           0
     15717 MEMB     119      POPC     H17S     HAL2     0.900000E-01   1.00800           0
     15718 MEMB     119      POPC     C218     CTL3    -0.270000       12.0110           0
     15719 MEMB     119      POPC     H18R     HAL3     0.900000E-01   1.00800           0
     15720 MEMB     119      POPC     H18S     HAL3     0.900000E-01   1.00800           0
     15721 MEMB     119      POPC     H18T     HAL3     0.900000E-01   1.00800           0
     15722 MEMB     119      POPC     C33      CTL2    -0.180000       12.0110           0
     15723 MEMB     119      POPC     H3X      HAL2     0.900000E-01   1.00800           0
     15724 MEMB     119      POPC     H3Y      HAL2     0.900000E-01   1.00800           0
     15725 MEMB     119      POPC     C34      CTL2    -0.180000       12.0110           0
     15726 MEMB     119      POPC     H4X      HAL2     0.900000E-01   1.00800           0
     15727 MEMB     119      POPC     H4Y      HAL2     0.900000E-01   1.00800           0
     15728 MEMB     119      POPC     C35      CTL2    -0.180000       12.0110           0
     15729 MEMB     119      POPC     H5X      HAL2     0.900000E-01   1.00800           0
     15730 MEMB     119      POPC     H5Y      HAL2     0.900000E-01   1.00800           0
     15731 MEMB     119      POPC     C36      CTL2    -0.180000       12.0110           0
     15732 MEMB     119      POPC     H6X      HAL2     0.900000E-01   1.00800           0
     15733 MEMB     119      POPC     H6Y      HAL2     0.900000E-01   1.00800           0
     15734 MEMB     119      POPC     C37      CTL2    -0.180000       12.0110           0
     15735 MEMB     119      POPC     H7X      HAL2     0.900000E-01   1.00800           0
     15736 MEMB     119      POPC     H7Y      HAL2     0.900000E-01   1.00800           0
     15737 MEMB     119      POPC     C38      CTL2    -0.180000       12.0110           0
     15738 MEMB     119      POPC     H8X      HAL2     0.900000E-01   1.00800           0
     15739 MEMB     119      POPC     H8Y      HAL2     0.900000E-01   1.00800           0
     15740 MEMB     119      POPC     C39      CTL2    -0.180000       12.0110           0
     15741 MEMB     119      POPC     H9X      HAL2     0.900000E-01   1.00800           0
     15742 MEMB     119      POPC     H9Y      HAL2     0.900000E-01   1.00800           0
     15743 MEMB     119      POPC     C310     CTL2    -0.180000       12.0110           0
     15744 MEMB     119      POPC     H10X     HAL2     0.900000E-01   1.00800           0
     15745 MEMB     119      POPC     H10Y     HAL2     0.900000E-01   1.00800           0
     15746 MEMB     119      POPC     C311     CTL2    -0.180000       12.0110           0
     15747 MEMB     119      POPC     H11X     HAL2     0.900000E-01   1.00800           0
     15748 MEMB     119      POPC     H11Y     HAL2     0.900000E-01   1.00800           0
     15749 MEMB     119      POPC     C312     CTL2    -0.180000       12.0110           0
     15750 MEMB     119      POPC     H12X     HAL2     0.900000E-01   1.00800           0
     15751 MEMB     119      POPC     H12Y     HAL2     0.900000E-01   1.00800           0
     15752 MEMB     119      POPC     C313     CTL2    -0.180000       12.0110           0
     15753 MEMB     119      POPC     H13X     HAL2     0.900000E-01   1.00800           0
     15754 MEMB     119      POPC     H13Y     HAL2     0.900000E-01   1.00800           0
     15755 MEMB     119      POPC     C314     CTL2    -0.180000       12.0110           0
     15756 MEMB     119      POPC     H14X     HAL2     0.900000E-01   1.00800           0
     15757 MEMB     119      POPC     H14Y     HAL2     0.900000E-01   1.00800           0
     15758 MEMB     119      POPC     C315     CTL2    -0.180000       12.0110           0
     15759 MEMB     119      POPC     H15X     HAL2     0.900000E-01   1.00800           0
     15760 MEMB     119      POPC     H15Y     HAL2     0.900000E-01   1.00800           0
     15761 MEMB     119      POPC     C316     CTL3    -0.270000       12.0110           0
     15762 MEMB     119      POPC     H16X     HAL3     0.900000E-01   1.00800           0
     15763 MEMB     119      POPC     H16Y     HAL3     0.900000E-01   1.00800           0
     15764 MEMB     119      POPC     H16Z     HAL3     0.900000E-01   1.00800           0
     15765 MEMB     120      POPC     N        NTL     -0.600000       14.0070           0
     15766 MEMB     120      POPC     C12      CTL2    -0.100000       12.0110           0
     15767 MEMB     120      POPC     H12A     HL       0.250000       1.00800           0
     15768 MEMB     120      POPC     H12B     HL       0.250000       1.00800           0
     15769 MEMB     120      POPC     C13      CTL5    -0.350000       12.0110           0
     15770 MEMB     120      POPC     H13A     HL       0.250000       1.00800           0
     15771 MEMB     120      POPC     H13B     HL       0.250000       1.00800           0
     15772 MEMB     120      POPC     H13C     HL       0.250000       1.00800           0
     15773 MEMB     120      POPC     C14      CTL5    -0.350000       12.0110           0
     15774 MEMB     120      POPC     H14A     HL       0.250000       1.00800           0
     15775 MEMB     120      POPC     H14B     HL       0.250000       1.00800           0
     15776 MEMB     120      POPC     H14C     HL       0.250000       1.00800           0
     15777 MEMB     120      POPC     C15      CTL5    -0.350000       12.0110           0
     15778 MEMB     120      POPC     H15A     HL       0.250000       1.00800           0
     15779 MEMB     120      POPC     H15B     HL       0.250000       1.00800           0
     15780 MEMB     120      POPC     H15C     HL       0.250000       1.00800           0
     15781 MEMB     120      POPC     C11      CTL2    -0.800000E-01   12.0110           0
     15782 MEMB     120      POPC     H11A     HAL2     0.900000E-01   1.00800           0
     15783 MEMB     120      POPC     H11B     HAL2     0.900000E-01   1.00800           0
     15784 MEMB     120      POPC     P        PL        1.50000       30.9740           0
     15785 MEMB     120      POPC     O13      O2L     -0.780000       15.9994           0
     15786 MEMB     120      POPC     O14      O2L     -0.780000       15.9994           0
     15787 MEMB     120      POPC     O12      OSLP    -0.570000       15.9994           0
     15788 MEMB     120      POPC     O11      OSLP    -0.570000       15.9994           0
     15789 MEMB     120      POPC     C1       CTL2    -0.800000E-01   12.0110           0
     15790 MEMB     120      POPC     HA       HAL2     0.900000E-01   1.00800           0
     15791 MEMB     120      POPC     HB       HAL2     0.900000E-01   1.00800           0
     15792 MEMB     120      POPC     C2       CTL1     0.170000       12.0110           0
     15793 MEMB     120      POPC     HS       HAL1     0.900000E-01   1.00800           0
     15794 MEMB     120      POPC     O21      OSL     -0.490000       15.9994           0
     15795 MEMB     120      POPC     C21      CL       0.900000       12.0110           0
     15796 MEMB     120      POPC     O22      OBL     -0.630000       15.9994           0
     15797 MEMB     120      POPC     C22      CTL2    -0.220000       12.0110           0
     15798 MEMB     120      POPC     H2R      HAL2     0.900000E-01   1.00800           0
     15799 MEMB     120      POPC     H2S      HAL2     0.900000E-01   1.00800           0
     15800 MEMB     120      POPC     C3       CTL2     0.800000E-01   12.0110           0
     15801 MEMB     120      POPC     HX       HAL2     0.900000E-01   1.00800           0
     15802 MEMB     120      POPC     HY       HAL2     0.900000E-01   1.00800           0
     15803 MEMB     120      POPC     O31      OSL     -0.490000       15.9994           0
     15804 MEMB     120      POPC     C31      CL       0.900000       12.0110           0
     15805 MEMB     120      POPC     O32      OBL     -0.630000       15.9994           0
     15806 MEMB     120      POPC     C32      CTL2    -0.220000       12.0110           0
     15807 MEMB     120      POPC     H2X      HAL2     0.900000E-01   1.00800           0
     15808 MEMB     120      POPC     H2Y      HAL2     0.900000E-01   1.00800           0
     15809 MEMB     120      POPC     C23      CTL2    -0.180000       12.0110           0
     15810 MEMB     120      POPC     H3R      HAL2     0.900000E-01   1.00800           0
     15811 MEMB     120      POPC     H3S      HAL2     0.900000E-01   1.00800           0
     15812 MEMB     120      POPC     C24      CTL2    -0.180000       12.0110           0
     15813 MEMB     120      POPC     H4R      HAL2     0.900000E-01   1.00800           0
     15814 MEMB     120      POPC     H4S      HAL2     0.900000E-01   1.00800           0
     15815 MEMB     120      POPC     C25      CTL2    -0.180000       12.0110           0
     15816 MEMB     120      POPC     H5R      HAL2     0.900000E-01   1.00800           0
     15817 MEMB     120      POPC     H5S      HAL2     0.900000E-01   1.00800           0
     15818 MEMB     120      POPC     C26      CTL2    -0.180000       12.0110           0
     15819 MEMB     120      POPC     H6R      HAL2     0.900000E-01   1.00800           0
     15820 MEMB     120      POPC     H6S      HAL2     0.900000E-01   1.00800           0
     15821 MEMB     120      POPC     C27      CTL2    -0.180000       12.0110           0
     15822 MEMB     120      POPC     H7R      HAL2     0.900000E-01   1.00800           0
     15823 MEMB     120      POPC     H7S      HAL2     0.900000E-01   1.00800           0
     15824 MEMB     120      POPC     C28      CTL2    -0.180000       12.0110           0
     15825 MEMB     120      POPC     H8R      HAL2     0.900000E-01   1.00800           0
     15826 MEMB     120      POPC     H8S      HAL2     0.900000E-01   1.00800           0
     15827 MEMB     120      POPC     C29      CEL1    -0.150000       12.0110           0
     15828 MEMB     120      POPC     H91      HEL1     0.150000       1.00800           0
     15829 MEMB     120      POPC     C210     CEL1    -0.150000       12.0110           0
     15830 MEMB     120      POPC     H101     HEL1     0.150000       1.00800           0
     15831 MEMB     120      POPC     C211     CTL2    -0.180000       12.0110           0
     15832 MEMB     120      POPC     H11R     HAL2     0.900000E-01   1.00800           0
     15833 MEMB     120      POPC     H11S     HAL2     0.900000E-01   1.00800           0
     15834 MEMB     120      POPC     C212     CTL2    -0.180000       12.0110           0
     15835 MEMB     120      POPC     H12R     HAL2     0.900000E-01   1.00800           0
     15836 MEMB     120      POPC     H12S     HAL2     0.900000E-01   1.00800           0
     15837 MEMB     120      POPC     C213     CTL2    -0.180000       12.0110           0
     15838 MEMB     120      POPC     H13R     HAL2     0.900000E-01   1.00800           0
     15839 MEMB     120      POPC     H13S     HAL2     0.900000E-01   1.00800           0
     15840 MEMB     120      POPC     C214     CTL2    -0.180000       12.0110           0
     15841 MEMB     120      POPC     H14R     HAL2     0.900000E-01   1.00800           0
     15842 MEMB     120      POPC     H14S     HAL2     0.900000E-01   1.00800           0
     15843 MEMB     120      POPC     C215     CTL2    -0.180000       12.0110           0
     15844 MEMB     120      POPC     H15R     HAL2     0.900000E-01   1.00800           0
     15845 MEMB     120      POPC     H15S     HAL2     0.900000E-01   1.00800           0
     15846 MEMB     120      POPC     C216     CTL2    -0.180000       12.0110           0
     15847 MEMB     120      POPC     H16R     HAL2     0.900000E-01   1.00800           0
     15848 MEMB     120      POPC     H16S     HAL2     0.900000E-01   1.00800           0
     15849 MEMB     120      POPC     C217     CTL2    -0.180000       12.0110           0
     15850 MEMB     120      POPC     H17R     HAL2     0.900000E-01   1.00800           0
     15851 MEMB     120      POPC     H17S     HAL2     0.900000E-01   1.00800           0
     15852 MEMB     120      POPC     C218     CTL3    -0.270000       12.0110           0
     15853 MEMB     120      POPC     H18R     HAL3     0.900000E-01   1.00800           0
     15854 MEMB     120      POPC     H18S     HAL3     0.900000E-01   1.00800           0
     15855 MEMB     120      POPC     H18T     HAL3     0.900000E-01   1.00800           0
     15856 MEMB     120      POPC     C33      CTL2    -0.180000       12.0110           0
     15857 MEMB     120      POPC     H3X      HAL2     0.900000E-01   1.00800           0
     15858 MEMB     120      POPC     H3Y      HAL2     0.900000E-01   1.00800           0
     15859 MEMB     120      POPC     C34      CTL2    -0.180000       12.0110           0
     15860 MEMB     120      POPC     H4X      HAL2     0.900000E-01   1.00800           0
     15861 MEMB     120      POPC     H4Y      HAL2     0.900000E-01   1.00800           0
     15862 MEMB     120      POPC     C35      CTL2    -0.180000       12.0110           0
     15863 MEMB     120      POPC     H5X      HAL2     0.900000E-01   1.00800           0
     15864 MEMB     120      POPC     H5Y      HAL2     0.900000E-01   1.00800           0
     15865 MEMB     120      POPC     C36      CTL2    -0.180000       12.0110           0
     15866 MEMB     120      POPC     H6X      HAL2     0.900000E-01   1.00800           0
     15867 MEMB     120      POPC     H6Y      HAL2     0.900000E-01   1.00800           0
     15868 MEMB     120      POPC     C37      CTL2    -0.180000       12.0110           0
     15869 MEMB     120      POPC     H7X      HAL2     0.900000E-01   1.00800           0
     15870 MEMB     120      POPC     H7Y      HAL2     0.900000E-01   1.00800           0
     15871 MEMB     120      POPC     C38      CTL2    -0.180000       12.0110           0
     15872 MEMB     120      POPC     H8X      HAL2     0.900000E-01   1.00800           0
     15873 MEMB     120      POPC     H8Y      HAL2     0.900000E-01   1.00800           0
     15874 MEMB     120      POPC     C39      CTL2    -0.180000       12.0110           0
     15875 MEMB     120      POPC     H9X      HAL2     0.900000E-01   1.00800           0
     15876 MEMB     120      POPC     H9Y      HAL2     0.900000E-01   1.00800           0
     15877 MEMB     120      POPC     C310     CTL2    -0.180000       12.0110           0
     15878 MEMB     120      POPC     H10X     HAL2     0.900000E-01   1.00800           0
     15879 MEMB     120      POPC     H10Y     HAL2     0.900000E-01   1.00800           0
     15880 MEMB     120      POPC     C311     CTL2    -0.180000       12.0110           0
     15881 MEMB     120      POPC     H11X     HAL2     0.900000E-01   1.00800           0
     15882 MEMB     120      POPC     H11Y     HAL2     0.900000E-01   1.00800           0
     15883 MEMB     120      POPC     C312     CTL2    -0.180000       12.0110           0
     15884 MEMB     120      POPC     H12X     HAL2     0.900000E-01   1.00800           0
     15885 MEMB     120      POPC     H12Y     HAL2     0.900000E-01   1.00800           0
     15886 MEMB     120      POPC     C313     CTL2    -0.180000       12.0110           0
     15887 MEMB     120      POPC     H13X     HAL2     0.900000E-01   1.00800           0
     15888 MEMB     120      POPC     H13Y     HAL2     0.900000E-01   1.00800           0
     15889 MEMB     120      POPC     C314     CTL2    -0.180000       12.0110           0
     15890 MEMB     120      POPC     H14X     HAL2     0.900000E-01   1.00800           0
     15891 MEMB     120      POPC     H14Y     HAL2     0.900000E-01   1.00800           0
     15892 MEMB     120      POPC     C315     CTL2    -0.180000       12.0110           0
     15893 MEMB     120      POPC     H15X     HAL2     0.900000E-01   1.00800           0
     15894 MEMB     120      POPC     H15Y     HAL2     0.900000E-01   1.00800           0
     15895 MEMB     120      POPC     C316     CTL3    -0.270000       12.0110           0
     15896 MEMB     120      POPC     H16X     HAL3     0.900000E-01   1.00800           0
     15897 MEMB     120      POPC     H16Y     HAL3     0.900000E-01   1.00800           0
     15898 MEMB     120      POPC     H16Z     HAL3     0.900000E-01   1.00800           0
     15899 MEMB     121      POPC     N        NTL     -0.600000       14.0070           0
     15900 MEMB     121      POPC     C12      CTL2    -0.100000       12.0110           0
     15901 MEMB     121      POPC     H12A     HL       0.250000       1.00800           0
     15902 MEMB     121      POPC     H12B     HL       0.250000       1.00800           0
     15903 MEMB     121      POPC     C13      CTL5    -0.350000       12.0110           0
     15904 MEMB     121      POPC     H13A     HL       0.250000       1.00800           0
     15905 MEMB     121      POPC     H13B     HL       0.250000       1.00800           0
     15906 MEMB     121      POPC     H13C     HL       0.250000       1.00800           0
     15907 MEMB     121      POPC     C14      CTL5    -0.350000       12.0110           0
     15908 MEMB     121      POPC     H14A     HL       0.250000       1.00800           0
     15909 MEMB     121      POPC     H14B     HL       0.250000       1.00800           0
     15910 MEMB     121      POPC     H14C     HL       0.250000       1.00800           0
     15911 MEMB     121      POPC     C15      CTL5    -0.350000       12.0110           0
     15912 MEMB     121      POPC     H15A     HL       0.250000       1.00800           0
     15913 MEMB     121      POPC     H15B     HL       0.250000       1.00800           0
     15914 MEMB     121      POPC     H15C     HL       0.250000       1.00800           0
     15915 MEMB     121      POPC     C11      CTL2    -0.800000E-01   12.0110           0
     15916 MEMB     121      POPC     H11A     HAL2     0.900000E-01   1.00800           0
     15917 MEMB     121      POPC     H11B     HAL2     0.900000E-01   1.00800           0
     15918 MEMB     121      POPC     P        PL        1.50000       30.9740           0
     15919 MEMB     121      POPC     O13      O2L     -0.780000       15.9994           0
     15920 MEMB     121      POPC     O14      O2L     -0.780000       15.9994           0
     15921 MEMB     121      POPC     O12      OSLP    -0.570000       15.9994           0
     15922 MEMB     121      POPC     O11      OSLP    -0.570000       15.9994           0
     15923 MEMB     121      POPC     C1       CTL2    -0.800000E-01   12.0110           0
     15924 MEMB     121      POPC     HA       HAL2     0.900000E-01   1.00800           0
     15925 MEMB     121      POPC     HB       HAL2     0.900000E-01   1.00800           0
     15926 MEMB     121      POPC     C2       CTL1     0.170000       12.0110           0
     15927 MEMB     121      POPC     HS       HAL1     0.900000E-01   1.00800           0
     15928 MEMB     121      POPC     O21      OSL     -0.490000       15.9994           0
     15929 MEMB     121      POPC     C21      CL       0.900000       12.0110           0
     15930 MEMB     121      POPC     O22      OBL     -0.630000       15.9994           0
     15931 MEMB     121      POPC     C22      CTL2    -0.220000       12.0110           0
     15932 MEMB     121      POPC     H2R      HAL2     0.900000E-01   1.00800           0
     15933 MEMB     121      POPC     H2S      HAL2     0.900000E-01   1.00800           0
     15934 MEMB     121      POPC     C3       CTL2     0.800000E-01   12.0110           0
     15935 MEMB     121      POPC     HX       HAL2     0.900000E-01   1.00800           0
     15936 MEMB     121      POPC     HY       HAL2     0.900000E-01   1.00800           0
     15937 MEMB     121      POPC     O31      OSL     -0.490000       15.9994           0
     15938 MEMB     121      POPC     C31      CL       0.900000       12.0110           0
     15939 MEMB     121      POPC     O32      OBL     -0.630000       15.9994           0
     15940 MEMB     121      POPC     C32      CTL2    -0.220000       12.0110           0
     15941 MEMB     121      POPC     H2X      HAL2     0.900000E-01   1.00800           0
     15942 MEMB     121      POPC     H2Y      HAL2     0.900000E-01   1.00800           0
     15943 MEMB     121      POPC     C23      CTL2    -0.180000       12.0110           0
     15944 MEMB     121      POPC     H3R      HAL2     0.900000E-01   1.00800           0
     15945 MEMB     121      POPC     H3S      HAL2     0.900000E-01   1.00800           0
     15946 MEMB     121      POPC     C24      CTL2    -0.180000       12.0110           0
     15947 MEMB     121      POPC     H4R      HAL2     0.900000E-01   1.00800           0
     15948 MEMB     121      POPC     H4S      HAL2     0.900000E-01   1.00800           0
     15949 MEMB     121      POPC     C25      CTL2    -0.180000       12.0110           0
     15950 MEMB     121      POPC     H5R      HAL2     0.900000E-01   1.00800           0
     15951 MEMB     121      POPC     H5S      HAL2     0.900000E-01   1.00800           0
     15952 MEMB     121      POPC     C26      CTL2    -0.180000       12.0110           0
     15953 MEMB     121      POPC     H6R      HAL2     0.900000E-01   1.00800           0
     15954 MEMB     121      POPC     H6S      HAL2     0.900000E-01   1.00800           0
     15955 MEMB     121      POPC     C27      CTL2    -0.180000       12.0110           0
     15956 MEMB     121      POPC     H7R      HAL2     0.900000E-01   1.00800           0
     15957 MEMB     121      POPC     H7S      HAL2     0.900000E-01   1.00800           0
     15958 MEMB     121      POPC     C28      CTL2    -0.180000       12.0110           0
     15959 MEMB     121      POPC     H8R      HAL2     0.900000E-01   1.00800           0
     15960 MEMB     121      POPC     H8S      HAL2     0.900000E-01   1.00800           0
     15961 MEMB     121      POPC     C29      CEL1    -0.150000       12.0110           0
     15962 MEMB     121      POPC     H91      HEL1     0.150000       1.00800           0
     15963 MEMB     121      POPC     C210     CEL1    -0.150000       12.0110           0
     15964 MEMB     121      POPC     H101     HEL1     0.150000       1.00800           0
     15965 MEMB     121      POPC     C211     CTL2    -0.180000       12.0110           0
     15966 MEMB     121      POPC     H11R     HAL2     0.900000E-01   1.00800           0
     15967 MEMB     121      POPC     H11S     HAL2     0.900000E-01   1.00800           0
     15968 MEMB     121      POPC     C212     CTL2    -0.180000       12.0110           0
     15969 MEMB     121      POPC     H12R     HAL2     0.900000E-01   1.00800           0
     15970 MEMB     121      POPC     H12S     HAL2     0.900000E-01   1.00800           0
     15971 MEMB     121      POPC     C213     CTL2    -0.180000       12.0110           0
     15972 MEMB     121      POPC     H13R     HAL2     0.900000E-01   1.00800           0
     15973 MEMB     121      POPC     H13S     HAL2     0.900000E-01   1.00800           0
     15974 MEMB     121      POPC     C214     CTL2    -0.180000       12.0110           0
     15975 MEMB     121      POPC     H14R     HAL2     0.900000E-01   1.00800           0
     15976 MEMB     121      POPC     H14S     HAL2     0.900000E-01   1.00800           0
     15977 MEMB     121      POPC     C215     CTL2    -0.180000       12.0110           0
     15978 MEMB     121      POPC     H15R     HAL2     0.900000E-01   1.00800           0
     15979 MEMB     121      POPC     H15S     HAL2     0.900000E-01   1.00800           0
     15980 MEMB     121      POPC     C216     CTL2    -0.180000       12.0110           0
     15981 MEMB     121      POPC     H16R     HAL2     0.900000E-01   1.00800           0
     15982 MEMB     121      POPC     H16S     HAL2     0.900000E-01   1.00800           0
     15983 MEMB     121      POPC     C217     CTL2    -0.180000       12.0110           0
     15984 MEMB     121      POPC     H17R     HAL2     0.900000E-01   1.00800           0
     15985 MEMB     121      POPC     H17S     HAL2     0.900000E-01   1.00800           0
     15986 MEMB     121      POPC     C218     CTL3    -0.270000       12.0110           0
     15987 MEMB     121      POPC     H18R     HAL3     0.900000E-01   1.00800           0
     15988 MEMB     121      POPC     H18S     HAL3     0.900000E-01   1.00800           0
     15989 MEMB     121      POPC     H18T     HAL3     0.900000E-01   1.00800           0
     15990 MEMB     121      POPC     C33      CTL2    -0.180000       12.0110           0
     15991 MEMB     121      POPC     H3X      HAL2     0.900000E-01   1.00800           0
     15992 MEMB     121      POPC     H3Y      HAL2     0.900000E-01   1.00800           0
     15993 MEMB     121      POPC     C34      CTL2    -0.180000       12.0110           0
     15994 MEMB     121      POPC     H4X      HAL2     0.900000E-01   1.00800           0
     15995 MEMB     121      POPC     H4Y      HAL2     0.900000E-01   1.00800           0
     15996 MEMB     121      POPC     C35      CTL2    -0.180000       12.0110           0
     15997 MEMB     121      POPC     H5X      HAL2     0.900000E-01   1.00800           0
     15998 MEMB     121      POPC     H5Y      HAL2     0.900000E-01   1.00800           0
     15999 MEMB     121      POPC     C36      CTL2    -0.180000       12.0110           0
     16000 MEMB     121      POPC     H6X      HAL2     0.900000E-01   1.00800           0
     16001 MEMB     121      POPC     H6Y      HAL2     0.900000E-01   1.00800           0
     16002 MEMB     121      POPC     C37      CTL2    -0.180000       12.0110           0
     16003 MEMB     121      POPC     H7X      HAL2     0.900000E-01   1.00800           0
     16004 MEMB     121      POPC     H7Y      HAL2     0.900000E-01   1.00800           0
     16005 MEMB     121      POPC     C38      CTL2    -0.180000       12.0110           0
     16006 MEMB     121      POPC     H8X      HAL2     0.900000E-01   1.00800           0
     16007 MEMB     121      POPC     H8Y      HAL2     0.900000E-01   1.00800           0
     16008 MEMB     121      POPC     C39      CTL2    -0.180000       12.0110           0
     16009 MEMB     121      POPC     H9X      HAL2     0.900000E-01   1.00800           0
     16010 MEMB     121      POPC     H9Y      HAL2     0.900000E-01   1.00800           0
     16011 MEMB     121      POPC     C310     CTL2    -0.180000       12.0110           0
     16012 MEMB     121      POPC     H10X     HAL2     0.900000E-01   1.00800           0
     16013 MEMB     121      POPC     H10Y     HAL2     0.900000E-01   1.00800           0
     16014 MEMB     121      POPC     C311     CTL2    -0.180000       12.0110           0
     16015 MEMB     121      POPC     H11X     HAL2     0.900000E-01   1.00800           0
     16016 MEMB     121      POPC     H11Y     HAL2     0.900000E-01   1.00800           0
     16017 MEMB     121      POPC     C312     CTL2    -0.180000       12.0110           0
     16018 MEMB     121      POPC     H12X     HAL2     0.900000E-01   1.00800           0
     16019 MEMB     121      POPC     H12Y     HAL2     0.900000E-01   1.00800           0
     16020 MEMB     121      POPC     C313     CTL2    -0.180000       12.0110           0
     16021 MEMB     121      POPC     H13X     HAL2     0.900000E-01   1.00800           0
     16022 MEMB     121      POPC     H13Y     HAL2     0.900000E-01   1.00800           0
     16023 MEMB     121      POPC     C314     CTL2    -0.180000       12.0110           0
     16024 MEMB     121      POPC     H14X     HAL2     0.900000E-01   1.00800           0
     16025 MEMB     121      POPC     H14Y     HAL2     0.900000E-01   1.00800           0
     16026 MEMB     121      POPC     C315     CTL2    -0.180000       12.0110           0
     16027 MEMB     121      POPC     H15X     HAL2     0.900000E-01   1.00800           0
     16028 MEMB     121      POPC     H15Y     HAL2     0.900000E-01   1.00800           0
     16029 MEMB     121      POPC     C316     CTL3    -0.270000       12.0110           0
     16030 MEMB     121      POPC     H16X     HAL3     0.900000E-01   1.00800           0
     16031 MEMB     121      POPC     H16Y     HAL3     0.900000E-01   1.00800           0
     16032 MEMB     121      POPC     H16Z     HAL3     0.900000E-01   1.00800           0
     16033 MEMB     122      POPC     N        NTL     -0.600000       14.0070           0
     16034 MEMB     122      POPC     C12      CTL2    -0.100000       12.0110           0
     16035 MEMB     122      POPC     H12A     HL       0.250000       1.00800           0
     16036 MEMB     122      POPC     H12B     HL       0.250000       1.00800           0
     16037 MEMB     122      POPC     C13      CTL5    -0.350000       12.0110           0
     16038 MEMB     122      POPC     H13A     HL       0.250000       1.00800           0
     16039 MEMB     122      POPC     H13B     HL       0.250000       1.00800           0
     16040 MEMB     122      POPC     H13C     HL       0.250000       1.00800           0
     16041 MEMB     122      POPC     C14      CTL5    -0.350000       12.0110           0
     16042 MEMB     122      POPC     H14A     HL       0.250000       1.00800           0
     16043 MEMB     122      POPC     H14B     HL       0.250000       1.00800           0
     16044 MEMB     122      POPC     H14C     HL       0.250000       1.00800           0
     16045 MEMB     122      POPC     C15      CTL5    -0.350000       12.0110           0
     16046 MEMB     122      POPC     H15A     HL       0.250000       1.00800           0
     16047 MEMB     122      POPC     H15B     HL       0.250000       1.00800           0
     16048 MEMB     122      POPC     H15C     HL       0.250000       1.00800           0
     16049 MEMB     122      POPC     C11      CTL2    -0.800000E-01   12.0110           0
     16050 MEMB     122      POPC     H11A     HAL2     0.900000E-01   1.00800           0
     16051 MEMB     122      POPC     H11B     HAL2     0.900000E-01   1.00800           0
     16052 MEMB     122      POPC     P        PL        1.50000       30.9740           0
     16053 MEMB     122      POPC     O13      O2L     -0.780000       15.9994           0
     16054 MEMB     122      POPC     O14      O2L     -0.780000       15.9994           0
     16055 MEMB     122      POPC     O12      OSLP    -0.570000       15.9994           0
     16056 MEMB     122      POPC     O11      OSLP    -0.570000       15.9994           0
     16057 MEMB     122      POPC     C1       CTL2    -0.800000E-01   12.0110           0
     16058 MEMB     122      POPC     HA       HAL2     0.900000E-01   1.00800           0
     16059 MEMB     122      POPC     HB       HAL2     0.900000E-01   1.00800           0
     16060 MEMB     122      POPC     C2       CTL1     0.170000       12.0110           0
     16061 MEMB     122      POPC     HS       HAL1     0.900000E-01   1.00800           0
     16062 MEMB     122      POPC     O21      OSL     -0.490000       15.9994           0
     16063 MEMB     122      POPC     C21      CL       0.900000       12.0110           0
     16064 MEMB     122      POPC     O22      OBL     -0.630000       15.9994           0
     16065 MEMB     122      POPC     C22      CTL2    -0.220000       12.0110           0
     16066 MEMB     122      POPC     H2R      HAL2     0.900000E-01   1.00800           0
     16067 MEMB     122      POPC     H2S      HAL2     0.900000E-01   1.00800           0
     16068 MEMB     122      POPC     C3       CTL2     0.800000E-01   12.0110           0
     16069 MEMB     122      POPC     HX       HAL2     0.900000E-01   1.00800           0
     16070 MEMB     122      POPC     HY       HAL2     0.900000E-01   1.00800           0
     16071 MEMB     122      POPC     O31      OSL     -0.490000       15.9994           0
     16072 MEMB     122      POPC     C31      CL       0.900000       12.0110           0
     16073 MEMB     122      POPC     O32      OBL     -0.630000       15.9994           0
     16074 MEMB     122      POPC     C32      CTL2    -0.220000       12.0110           0
     16075 MEMB     122      POPC     H2X      HAL2     0.900000E-01   1.00800           0
     16076 MEMB     122      POPC     H2Y      HAL2     0.900000E-01   1.00800           0
     16077 MEMB     122      POPC     C23      CTL2    -0.180000       12.0110           0
     16078 MEMB     122      POPC     H3R      HAL2     0.900000E-01   1.00800           0
     16079 MEMB     122      POPC     H3S      HAL2     0.900000E-01   1.00800           0
     16080 MEMB     122      POPC     C24      CTL2    -0.180000       12.0110           0
     16081 MEMB     122      POPC     H4R      HAL2     0.900000E-01   1.00800           0
     16082 MEMB     122      POPC     H4S      HAL2     0.900000E-01   1.00800           0
     16083 MEMB     122      POPC     C25      CTL2    -0.180000       12.0110           0
     16084 MEMB     122      POPC     H5R      HAL2     0.900000E-01   1.00800           0
     16085 MEMB     122      POPC     H5S      HAL2     0.900000E-01   1.00800           0
     16086 MEMB     122      POPC     C26      CTL2    -0.180000       12.0110           0
     16087 MEMB     122      POPC     H6R      HAL2     0.900000E-01   1.00800           0
     16088 MEMB     122      POPC     H6S      HAL2     0.900000E-01   1.00800           0
     16089 MEMB     122      POPC     C27      CTL2    -0.180000       12.0110           0
     16090 MEMB     122      POPC     H7R      HAL2     0.900000E-01   1.00800           0
     16091 MEMB     122      POPC     H7S      HAL2     0.900000E-01   1.00800           0
     16092 MEMB     122      POPC     C28      CTL2    -0.180000       12.0110           0
     16093 MEMB     122      POPC     H8R      HAL2     0.900000E-01   1.00800           0
     16094 MEMB     122      POPC     H8S      HAL2     0.900000E-01   1.00800           0
     16095 MEMB     122      POPC     C29      CEL1    -0.150000       12.0110           0
     16096 MEMB     122      POPC     H91      HEL1     0.150000       1.00800           0
     16097 MEMB     122      POPC     C210     CEL1    -0.150000       12.0110           0
     16098 MEMB     122      POPC     H101     HEL1     0.150000       1.00800           0
     16099 MEMB     122      POPC     C211     CTL2    -0.180000       12.0110           0
     16100 MEMB     122      POPC     H11R     HAL2     0.900000E-01   1.00800           0
     16101 MEMB     122      POPC     H11S     HAL2     0.900000E-01   1.00800           0
     16102 MEMB     122      POPC     C212     CTL2    -0.180000       12.0110           0
     16103 MEMB     122      POPC     H12R     HAL2     0.900000E-01   1.00800           0
     16104 MEMB     122      POPC     H12S     HAL2     0.900000E-01   1.00800           0
     16105 MEMB     122      POPC     C213     CTL2    -0.180000       12.0110           0
     16106 MEMB     122      POPC     H13R     HAL2     0.900000E-01   1.00800           0
     16107 MEMB     122      POPC     H13S     HAL2     0.900000E-01   1.00800           0
     16108 MEMB     122      POPC     C214     CTL2    -0.180000       12.0110           0
     16109 MEMB     122      POPC     H14R     HAL2     0.900000E-01   1.00800           0
     16110 MEMB     122      POPC     H14S     HAL2     0.900000E-01   1.00800           0
     16111 MEMB     122      POPC     C215     CTL2    -0.180000       12.0110           0
     16112 MEMB     122      POPC     H15R     HAL2     0.900000E-01   1.00800           0
     16113 MEMB     122      POPC     H15S     HAL2     0.900000E-01   1.00800           0
     16114 MEMB     122      POPC     C216     CTL2    -0.180000       12.0110           0
     16115 MEMB     122      POPC     H16R     HAL2     0.900000E-01   1.00800           0
     16116 MEMB     122      POPC     H16S     HAL2     0.900000E-01   1.00800           0
     16117 MEMB     122      POPC     C217     CTL2    -0.180000       12.0110           0
     16118 MEMB     122      POPC     H17R     HAL2     0.900000E-01   1.00800           0
     16119 MEMB     122      POPC     H17S     HAL2     0.900000E-01   1.00800           0
     16120 MEMB     122      POPC     C218     CTL3    -0.270000       12.0110           0
     16121 MEMB     122      POPC     H18R     HAL3     0.900000E-01   1.00800           0
     16122 MEMB     122      POPC     H18S     HAL3     0.900000E-01   1.00800           0
     16123 MEMB     122      POPC     H18T     HAL3     0.900000E-01   1.00800           0
     16124 MEMB     122      POPC     C33      CTL2    -0.180000       12.0110           0
     16125 MEMB     122      POPC     H3X      HAL2     0.900000E-01   1.00800           0
     16126 MEMB     122      POPC     H3Y      HAL2     0.900000E-01   1.00800           0
     16127 MEMB     122      POPC     C34      CTL2    -0.180000       12.0110           0
     16128 MEMB     122      POPC     H4X      HAL2     0.900000E-01   1.00800           0
     16129 MEMB     122      POPC     H4Y      HAL2     0.900000E-01   1.00800           0
     16130 MEMB     122      POPC     C35      CTL2    -0.180000       12.0110           0
     16131 MEMB     122      POPC     H5X      HAL2     0.900000E-01   1.00800           0
     16132 MEMB     122      POPC     H5Y      HAL2     0.900000E-01   1.00800           0
     16133 MEMB     122      POPC     C36      CTL2    -0.180000       12.0110           0
     16134 MEMB     122      POPC     H6X      HAL2     0.900000E-01   1.00800           0
     16135 MEMB     122      POPC     H6Y      HAL2     0.900000E-01   1.00800           0
     16136 MEMB     122      POPC     C37      CTL2    -0.180000       12.0110           0
     16137 MEMB     122      POPC     H7X      HAL2     0.900000E-01   1.00800           0
     16138 MEMB     122      POPC     H7Y      HAL2     0.900000E-01   1.00800           0
     16139 MEMB     122      POPC     C38      CTL2    -0.180000       12.0110           0
     16140 MEMB     122      POPC     H8X      HAL2     0.900000E-01   1.00800           0
     16141 MEMB     122      POPC     H8Y      HAL2     0.900000E-01   1.00800           0
     16142 MEMB     122      POPC     C39      CTL2    -0.180000       12.0110           0
     16143 MEMB     122      POPC     H9X      HAL2     0.900000E-01   1.00800           0
     16144 MEMB     122      POPC     H9Y      HAL2     0.900000E-01   1.00800           0
     16145 MEMB     122      POPC     C310     CTL2    -0.180000       12.0110           0
     16146 MEMB     122      POPC     H10X     HAL2     0.900000E-01   1.00800           0
     16147 MEMB     122      POPC     H10Y     HAL2     0.900000E-01   1.00800           0
     16148 MEMB     122      POPC     C311     CTL2    -0.180000       12.0110           0
     16149 MEMB     122      POPC     H11X     HAL2     0.900000E-01   1.00800           0
     16150 MEMB     122      POPC     H11Y     HAL2     0.900000E-01   1.00800           0
     16151 MEMB     122      POPC     C312     CTL2    -0.180000       12.0110           0
     16152 MEMB     122      POPC     H12X     HAL2     0.900000E-01   1.00800           0
     16153 MEMB     122      POPC     H12Y     HAL2     0.900000E-01   1.00800           0
     16154 MEMB     122      POPC     C313     CTL2    -0.180000       12.0110           0
     16155 MEMB     122      POPC     H13X     HAL2     0.900000E-01   1.00800           0
     16156 MEMB     122      POPC     H13Y     HAL2     0.900000E-01   1.00800           0
     16157 MEMB     122      POPC     C314     CTL2    -0.180000       12.0110           0
     16158 MEMB     122      POPC     H14X     HAL2     0.900000E-01   1.00800           0
     16159 MEMB     122      POPC     H14Y     HAL2     0.900000E-01   1.00800           0
     16160 MEMB     122      POPC     C315     CTL2    -0.180000       12.0110           0
     16161 MEMB     122      POPC     H15X     HAL2     0.900000E-01   1.00800           0
     16162 MEMB     122      POPC     H15Y     HAL2     0.900000E-01   1.00800           0
     16163 MEMB     122      POPC     C316     CTL3    -0.270000       12.0110           0
     16164 MEMB     122      POPC     H16X     HAL3     0.900000E-01   1.00800           0
     16165 MEMB     122      POPC     H16Y     HAL3     0.900000E-01   1.00800           0
     16166 MEMB     122      POPC     H16Z     HAL3     0.900000E-01   1.00800           0
     16167 MEMB     123      POPC     N        NTL     -0.600000       14.0070           0
     16168 MEMB     123      POPC     C12      CTL2    -0.100000       12.0110           0
     16169 MEMB     123      POPC     H12A     HL       0.250000       1.00800           0
     16170 MEMB     123      POPC     H12B     HL       0.250000       1.00800           0
     16171 MEMB     123      POPC     C13      CTL5    -0.350000       12.0110           0
     16172 MEMB     123      POPC     H13A     HL       0.250000       1.00800           0
     16173 MEMB     123      POPC     H13B     HL       0.250000       1.00800           0
     16174 MEMB     123      POPC     H13C     HL       0.250000       1.00800           0
     16175 MEMB     123      POPC     C14      CTL5    -0.350000       12.0110           0
     16176 MEMB     123      POPC     H14A     HL       0.250000       1.00800           0
     16177 MEMB     123      POPC     H14B     HL       0.250000       1.00800           0
     16178 MEMB     123      POPC     H14C     HL       0.250000       1.00800           0
     16179 MEMB     123      POPC     C15      CTL5    -0.350000       12.0110           0
     16180 MEMB     123      POPC     H15A     HL       0.250000       1.00800           0
     16181 MEMB     123      POPC     H15B     HL       0.250000       1.00800           0
     16182 MEMB     123      POPC     H15C     HL       0.250000       1.00800           0
     16183 MEMB     123      POPC     C11      CTL2    -0.800000E-01   12.0110           0
     16184 MEMB     123      POPC     H11A     HAL2     0.900000E-01   1.00800           0
     16185 MEMB     123      POPC     H11B     HAL2     0.900000E-01   1.00800           0
     16186 MEMB     123      POPC     P        PL        1.50000       30.9740           0
     16187 MEMB     123      POPC     O13      O2L     -0.780000       15.9994           0
     16188 MEMB     123      POPC     O14      O2L     -0.780000       15.9994           0
     16189 MEMB     123      POPC     O12      OSLP    -0.570000       15.9994           0
     16190 MEMB     123      POPC     O11      OSLP    -0.570000       15.9994           0
     16191 MEMB     123      POPC     C1       CTL2    -0.800000E-01   12.0110           0
     16192 MEMB     123      POPC     HA       HAL2     0.900000E-01   1.00800           0
     16193 MEMB     123      POPC     HB       HAL2     0.900000E-01   1.00800           0
     16194 MEMB     123      POPC     C2       CTL1     0.170000       12.0110           0
     16195 MEMB     123      POPC     HS       HAL1     0.900000E-01   1.00800           0
     16196 MEMB     123      POPC     O21      OSL     -0.490000       15.9994           0
     16197 MEMB     123      POPC     C21      CL       0.900000       12.0110           0
     16198 MEMB     123      POPC     O22      OBL     -0.630000       15.9994           0
     16199 MEMB     123      POPC     C22      CTL2    -0.220000       12.0110           0
     16200 MEMB     123      POPC     H2R      HAL2     0.900000E-01   1.00800           0
     16201 MEMB     123      POPC     H2S      HAL2     0.900000E-01   1.00800           0
     16202 MEMB     123      POPC     C3       CTL2     0.800000E-01   12.0110           0
     16203 MEMB     123      POPC     HX       HAL2     0.900000E-01   1.00800           0
     16204 MEMB     123      POPC     HY       HAL2     0.900000E-01   1.00800           0
     16205 MEMB     123      POPC     O31      OSL     -0.490000       15.9994           0
     16206 MEMB     123      POPC     C31      CL       0.900000       12.0110           0
     16207 MEMB     123      POPC     O32      OBL     -0.630000       15.9994           0
     16208 MEMB     123      POPC     C32      CTL2    -0.220000       12.0110           0
     16209 MEMB     123      POPC     H2X      HAL2     0.900000E-01   1.00800           0
     16210 MEMB     123      POPC     H2Y      HAL2     0.900000E-01   1.00800           0
     16211 MEMB     123      POPC     C23      CTL2    -0.180000       12.0110           0
     16212 MEMB     123      POPC     H3R      HAL2     0.900000E-01   1.00800           0
     16213 MEMB     123      POPC     H3S      HAL2     0.900000E-01   1.00800           0
     16214 MEMB     123      POPC     C24      CTL2    -0.180000       12.0110           0
     16215 MEMB     123      POPC     H4R      HAL2     0.900000E-01   1.00800           0
     16216 MEMB     123      POPC     H4S      HAL2     0.900000E-01   1.00800           0
     16217 MEMB     123      POPC     C25      CTL2    -0.180000       12.0110           0
     16218 MEMB     123      POPC     H5R      HAL2     0.900000E-01   1.00800           0
     16219 MEMB     123      POPC     H5S      HAL2     0.900000E-01   1.00800           0
     16220 MEMB     123      POPC     C26      CTL2    -0.180000       12.0110           0
     16221 MEMB     123      POPC     H6R      HAL2     0.900000E-01   1.00800           0
     16222 MEMB     123      POPC     H6S      HAL2     0.900000E-01   1.00800           0
     16223 MEMB     123      POPC     C27      CTL2    -0.180000       12.0110           0
     16224 MEMB     123      POPC     H7R      HAL2     0.900000E-01   1.00800           0
     16225 MEMB     123      POPC     H7S      HAL2     0.900000E-01   1.00800           0
     16226 MEMB     123      POPC     C28      CTL2    -0.180000       12.0110           0
     16227 MEMB     123      POPC     H8R      HAL2     0.900000E-01   1.00800           0
     16228 MEMB     123      POPC     H8S      HAL2     0.900000E-01   1.00800           0
     16229 MEMB     123      POPC     C29      CEL1    -0.150000       12.0110           0
     16230 MEMB     123      POPC     H91      HEL1     0.150000       1.00800           0
     16231 MEMB     123      POPC     C210     CEL1    -0.150000       12.0110           0
     16232 MEMB     123      POPC     H101     HEL1     0.150000       1.00800           0
     16233 MEMB     123      POPC     C211     CTL2    -0.180000       12.0110           0
     16234 MEMB     123      POPC     H11R     HAL2     0.900000E-01   1.00800           0
     16235 MEMB     123      POPC     H11S     HAL2     0.900000E-01   1.00800           0
     16236 MEMB     123      POPC     C212     CTL2    -0.180000       12.0110           0
     16237 MEMB     123      POPC     H12R     HAL2     0.900000E-01   1.00800           0
     16238 MEMB     123      POPC     H12S     HAL2     0.900000E-01   1.00800           0
     16239 MEMB     123      POPC     C213     CTL2    -0.180000       12.0110           0
     16240 MEMB     123      POPC     H13R     HAL2     0.900000E-01   1.00800           0
     16241 MEMB     123      POPC     H13S     HAL2     0.900000E-01   1.00800           0
     16242 MEMB     123      POPC     C214     CTL2    -0.180000       12.0110           0
     16243 MEMB     123      POPC     H14R     HAL2     0.900000E-01   1.00800           0
     16244 MEMB     123      POPC     H14S     HAL2     0.900000E-01   1.00800           0
     16245 MEMB     123      POPC     C215     CTL2    -0.180000       12.0110           0
     16246 MEMB     123      POPC     H15R     HAL2     0.900000E-01   1.00800           0
     16247 MEMB     123      POPC     H15S     HAL2     0.900000E-01   1.00800           0
     16248 MEMB     123      POPC     C216     CTL2    -0.180000       12.0110           0
     16249 MEMB     123      POPC     H16R     HAL2     0.900000E-01   1.00800           0
     16250 MEMB     123      POPC     H16S     HAL2     0.900000E-01   1.00800           0
     16251 MEMB     123      POPC     C217     CTL2    -0.180000       12.0110           0
     16252 MEMB     123      POPC     H17R     HAL2     0.900000E-01   1.00800           0
     16253 MEMB     123      POPC     H17S     HAL2     0.900000E-01   1.00800           0
     16254 MEMB     123      POPC     C218     CTL3    -0.270000       12.0110           0
     16255 MEMB     123      POPC     H18R     HAL3     0.900000E-01   1.00800           0
     16256 MEMB     123      POPC     H18S     HAL3     0.900000E-01   1.00800           0
     16257 MEMB     123      POPC     H18T     HAL3     0.900000E-01   1.00800           0
     16258 MEMB     123      POPC     C33      CTL2    -0.180000       12.0110           0
     16259 MEMB     123      POPC     H3X      HAL2     0.900000E-01   1.00800           0
     16260 MEMB     123      POPC     H3Y      HAL2     0.900000E-01   1.00800           0
     16261 MEMB     123      POPC     C34      CTL2    -0.180000       12.0110           0
     16262 MEMB     123      POPC     H4X      HAL2     0.900000E-01   1.00800           0
     16263 MEMB     123      POPC     H4Y      HAL2     0.900000E-01   1.00800           0
     16264 MEMB     123      POPC     C35      CTL2    -0.180000       12.0110           0
     16265 MEMB     123      POPC     H5X      HAL2     0.900000E-01   1.00800           0
     16266 MEMB     123      POPC     H5Y      HAL2     0.900000E-01   1.00800           0
     16267 MEMB     123      POPC     C36      CTL2    -0.180000       12.0110           0
     16268 MEMB     123      POPC     H6X      HAL2     0.900000E-01   1.00800           0
     16269 MEMB     123      POPC     H6Y      HAL2     0.900000E-01   1.00800           0
     16270 MEMB     123      POPC     C37      CTL2    -0.180000       12.0110           0
     16271 MEMB     123      POPC     H7X      HAL2     0.900000E-01   1.00800           0
     16272 MEMB     123      POPC     H7Y      HAL2     0.900000E-01   1.00800           0
     16273 MEMB     123      POPC     C38      CTL2    -0.180000       12.0110           0
     16274 MEMB     123      POPC     H8X      HAL2     0.900000E-01   1.00800           0
     16275 MEMB     123      POPC     H8Y      HAL2     0.900000E-01   1.00800           0
     16276 MEMB     123      POPC     C39      CTL2    -0.180000       12.0110           0
     16277 MEMB     123      POPC     H9X      HAL2     0.900000E-01   1.00800           0
     16278 MEMB     123      POPC     H9Y      HAL2     0.900000E-01   1.00800           0
     16279 MEMB     123      POPC     C310     CTL2    -0.180000       12.0110           0
     16280 MEMB     123      POPC     H10X     HAL2     0.900000E-01   1.00800           0
     16281 MEMB     123      POPC     H10Y     HAL2     0.900000E-01   1.00800           0
     16282 MEMB     123      POPC     C311     CTL2    -0.180000       12.0110           0
     16283 MEMB     123      POPC     H11X     HAL2     0.900000E-01   1.00800           0
     16284 MEMB     123      POPC     H11Y     HAL2     0.900000E-01   1.00800           0
     16285 MEMB     123      POPC     C312     CTL2    -0.180000       12.0110           0
     16286 MEMB     123      POPC     H12X     HAL2     0.900000E-01   1.00800           0
     16287 MEMB     123      POPC     H12Y     HAL2     0.900000E-01   1.00800           0
     16288 MEMB     123      POPC     C313     CTL2    -0.180000       12.0110           0
     16289 MEMB     123      POPC     H13X     HAL2     0.900000E-01   1.00800           0
     16290 MEMB     123      POPC     H13Y     HAL2     0.900000E-01   1.00800           0
     16291 MEMB     123      POPC     C314     CTL2    -0.180000       12.0110           0
     16292 MEMB     123      POPC     H14X     HAL2     0.900000E-01   1.00800           0
     16293 MEMB     123      POPC     H14Y     HAL2     0.900000E-01   1.00800           0
     16294 MEMB     123      POPC     C315     CTL2    -0.180000       12.0110           0
     16295 MEMB     123      POPC     H15X     HAL2     0.900000E-01   1.00800           0
     16296 MEMB     123      POPC     H15Y     HAL2     0.900000E-01   1.00800           0
     16297 MEMB     123      POPC     C316     CTL3    -0.270000       12.0110           0
     16298 MEMB     123      POPC     H16X     HAL3     0.900000E-01   1.00800           0
     16299 MEMB     123      POPC     H16Y     HAL3     0.900000E-01   1.00800           0
     16300 MEMB     123      POPC     H16Z     HAL3     0.900000E-01   1.00800           0
     16301 MEMB     124      POPC     N        NTL     -0.600000       14.0070           0
     16302 MEMB     124      POPC     C12      CTL2    -0.100000       12.0110           0
     16303 MEMB     124      POPC     H12A     HL       0.250000       1.00800           0
     16304 MEMB     124      POPC     H12B     HL       0.250000       1.00800           0
     16305 MEMB     124      POPC     C13      CTL5    -0.350000       12.0110           0
     16306 MEMB     124      POPC     H13A     HL       0.250000       1.00800           0
     16307 MEMB     124      POPC     H13B     HL       0.250000       1.00800           0
     16308 MEMB     124      POPC     H13C     HL       0.250000       1.00800           0
     16309 MEMB     124      POPC     C14      CTL5    -0.350000       12.0110           0
     16310 MEMB     124      POPC     H14A     HL       0.250000       1.00800           0
     16311 MEMB     124      POPC     H14B     HL       0.250000       1.00800           0
     16312 MEMB     124      POPC     H14C     HL       0.250000       1.00800           0
     16313 MEMB     124      POPC     C15      CTL5    -0.350000       12.0110           0
     16314 MEMB     124      POPC     H15A     HL       0.250000       1.00800           0
     16315 MEMB     124      POPC     H15B     HL       0.250000       1.00800           0
     16316 MEMB     124      POPC     H15C     HL       0.250000       1.00800           0
     16317 MEMB     124      POPC     C11      CTL2    -0.800000E-01   12.0110           0
     16318 MEMB     124      POPC     H11A     HAL2     0.900000E-01   1.00800           0
     16319 MEMB     124      POPC     H11B     HAL2     0.900000E-01   1.00800           0
     16320 MEMB     124      POPC     P        PL        1.50000       30.9740           0
     16321 MEMB     124      POPC     O13      O2L     -0.780000       15.9994           0
     16322 MEMB     124      POPC     O14      O2L     -0.780000       15.9994           0
     16323 MEMB     124      POPC     O12      OSLP    -0.570000       15.9994           0
     16324 MEMB     124      POPC     O11      OSLP    -0.570000       15.9994           0
     16325 MEMB     124      POPC     C1       CTL2    -0.800000E-01   12.0110           0
     16326 MEMB     124      POPC     HA       HAL2     0.900000E-01   1.00800           0
     16327 MEMB     124      POPC     HB       HAL2     0.900000E-01   1.00800           0
     16328 MEMB     124      POPC     C2       CTL1     0.170000       12.0110           0
     16329 MEMB     124      POPC     HS       HAL1     0.900000E-01   1.00800           0
     16330 MEMB     124      POPC     O21      OSL     -0.490000       15.9994           0
     16331 MEMB     124      POPC     C21      CL       0.900000       12.0110           0
     16332 MEMB     124      POPC     O22      OBL     -0.630000       15.9994           0
     16333 MEMB     124      POPC     C22      CTL2    -0.220000       12.0110           0
     16334 MEMB     124      POPC     H2R      HAL2     0.900000E-01   1.00800           0
     16335 MEMB     124      POPC     H2S      HAL2     0.900000E-01   1.00800           0
     16336 MEMB     124      POPC     C3       CTL2     0.800000E-01   12.0110           0
     16337 MEMB     124      POPC     HX       HAL2     0.900000E-01   1.00800           0
     16338 MEMB     124      POPC     HY       HAL2     0.900000E-01   1.00800           0
     16339 MEMB     124      POPC     O31      OSL     -0.490000       15.9994           0
     16340 MEMB     124      POPC     C31      CL       0.900000       12.0110           0
     16341 MEMB     124      POPC     O32      OBL     -0.630000       15.9994           0
     16342 MEMB     124      POPC     C32      CTL2    -0.220000       12.0110           0
     16343 MEMB     124      POPC     H2X      HAL2     0.900000E-01   1.00800           0
     16344 MEMB     124      POPC     H2Y      HAL2     0.900000E-01   1.00800           0
     16345 MEMB     124      POPC     C23      CTL2    -0.180000       12.0110           0
     16346 MEMB     124      POPC     H3R      HAL2     0.900000E-01   1.00800           0
     16347 MEMB     124      POPC     H3S      HAL2     0.900000E-01   1.00800           0
     16348 MEMB     124      POPC     C24      CTL2    -0.180000       12.0110           0
     16349 MEMB     124      POPC     H4R      HAL2     0.900000E-01   1.00800           0
     16350 MEMB     124      POPC     H4S      HAL2     0.900000E-01   1.00800           0
     16351 MEMB     124      POPC     C25      CTL2    -0.180000       12.0110           0
     16352 MEMB     124      POPC     H5R      HAL2     0.900000E-01   1.00800           0
     16353 MEMB     124      POPC     H5S      HAL2     0.900000E-01   1.00800           0
     16354 MEMB     124      POPC     C26      CTL2    -0.180000       12.0110           0
     16355 MEMB     124      POPC     H6R      HAL2     0.900000E-01   1.00800           0
     16356 MEMB     124      POPC     H6S      HAL2     0.900000E-01   1.00800           0
     16357 MEMB     124      POPC     C27      CTL2    -0.180000       12.0110           0
     16358 MEMB     124      POPC     H7R      HAL2     0.900000E-01   1.00800           0
     16359 MEMB     124      POPC     H7S      HAL2     0.900000E-01   1.00800           0
     16360 MEMB     124      POPC     C28      CTL2    -0.180000       12.0110           0
     16361 MEMB     124      POPC     H8R      HAL2     0.900000E-01   1.00800           0
     16362 MEMB     124      POPC     H8S      HAL2     0.900000E-01   1.00800           0
     16363 MEMB     124      POPC     C29      CEL1    -0.150000       12.0110           0
     16364 MEMB     124      POPC     H91      HEL1     0.150000       1.00800           0
     16365 MEMB     124      POPC     C210     CEL1    -0.150000       12.0110           0
     16366 MEMB     124      POPC     H101     HEL1     0.150000       1.00800           0
     16367 MEMB     124      POPC     C211     CTL2    -0.180000       12.0110           0
     16368 MEMB     124      POPC     H11R     HAL2     0.900000E-01   1.00800           0
     16369 MEMB     124      POPC     H11S     HAL2     0.900000E-01   1.00800           0
     16370 MEMB     124      POPC     C212     CTL2    -0.180000       12.0110           0
     16371 MEMB     124      POPC     H12R     HAL2     0.900000E-01   1.00800           0
     16372 MEMB     124      POPC     H12S     HAL2     0.900000E-01   1.00800           0
     16373 MEMB     124      POPC     C213     CTL2    -0.180000       12.0110           0
     16374 MEMB     124      POPC     H13R     HAL2     0.900000E-01   1.00800           0
     16375 MEMB     124      POPC     H13S     HAL2     0.900000E-01   1.00800           0
     16376 MEMB     124      POPC     C214     CTL2    -0.180000       12.0110           0
     16377 MEMB     124      POPC     H14R     HAL2     0.900000E-01   1.00800           0
     16378 MEMB     124      POPC     H14S     HAL2     0.900000E-01   1.00800           0
     16379 MEMB     124      POPC     C215     CTL2    -0.180000       12.0110           0
     16380 MEMB     124      POPC     H15R     HAL2     0.900000E-01   1.00800           0
     16381 MEMB     124      POPC     H15S     HAL2     0.900000E-01   1.00800           0
     16382 MEMB     124      POPC     C216     CTL2    -0.180000       12.0110           0
     16383 MEMB     124      POPC     H16R     HAL2     0.900000E-01   1.00800           0
     16384 MEMB     124      POPC     H16S     HAL2     0.900000E-01   1.00800           0
     16385 MEMB     124      POPC     C217     CTL2    -0.180000       12.0110           0
     16386 MEMB     124      POPC     H17R     HAL2     0.900000E-01   1.00800           0
     16387 MEMB     124      POPC     H17S     HAL2     0.900000E-01   1.00800           0
     16388 MEMB     124      POPC     C218     CTL3    -0.270000       12.0110           0
     16389 MEMB     124      POPC     H18R     HAL3     0.900000E-01   1.00800           0
     16390 MEMB     124      POPC     H18S     HAL3     0.900000E-01   1.00800           0
     16391 MEMB     124      POPC     H18T     HAL3     0.900000E-01   1.00800           0
     16392 MEMB     124      POPC     C33      CTL2    -0.180000       12.0110           0
     16393 MEMB     124      POPC     H3X      HAL2     0.900000E-01   1.00800           0
     16394 MEMB     124      POPC     H3Y      HAL2     0.900000E-01   1.00800           0
     16395 MEMB     124      POPC     C34      CTL2    -0.180000       12.0110           0
     16396 MEMB     124      POPC     H4X      HAL2     0.900000E-01   1.00800           0
     16397 MEMB     124      POPC     H4Y      HAL2     0.900000E-01   1.00800           0
     16398 MEMB     124      POPC     C35      CTL2    -0.180000       12.0110           0
     16399 MEMB     124      POPC     H5X      HAL2     0.900000E-01   1.00800           0
     16400 MEMB     124      POPC     H5Y      HAL2     0.900000E-01   1.00800           0
     16401 MEMB     124      POPC     C36      CTL2    -0.180000       12.0110           0
     16402 MEMB     124      POPC     H6X      HAL2     0.900000E-01   1.00800           0
     16403 MEMB     124      POPC     H6Y      HAL2     0.900000E-01   1.00800           0
     16404 MEMB     124      POPC     C37      CTL2    -0.180000       12.0110           0
     16405 MEMB     124      POPC     H7X      HAL2     0.900000E-01   1.00800           0
     16406 MEMB     124      POPC     H7Y      HAL2     0.900000E-01   1.00800           0
     16407 MEMB     124      POPC     C38      CTL2    -0.180000       12.0110           0
     16408 MEMB     124      POPC     H8X      HAL2     0.900000E-01   1.00800           0
     16409 MEMB     124      POPC     H8Y      HAL2     0.900000E-01   1.00800           0
     16410 MEMB     124      POPC     C39      CTL2    -0.180000       12.0110           0
     16411 MEMB     124      POPC     H9X      HAL2     0.900000E-01   1.00800           0
     16412 MEMB     124      POPC     H9Y      HAL2     0.900000E-01   1.00800           0
     16413 MEMB     124      POPC     C310     CTL2    -0.180000       12.0110           0
     16414 MEMB     124      POPC     H10X     HAL2     0.900000E-01   1.00800           0
     16415 MEMB     124      POPC     H10Y     HAL2     0.900000E-01   1.00800           0
     16416 MEMB     124      POPC     C311     CTL2    -0.180000       12.0110           0
     16417 MEMB     124      POPC     H11X     HAL2     0.900000E-01   1.00800           0
     16418 MEMB     124      POPC     H11Y     HAL2     0.900000E-01   1.00800           0
     16419 MEMB     124      POPC     C312     CTL2    -0.180000       12.0110           0
     16420 MEMB     124      POPC     H12X     HAL2     0.900000E-01   1.00800           0
     16421 MEMB     124      POPC     H12Y     HAL2     0.900000E-01   1.00800           0
     16422 MEMB     124      POPC     C313     CTL2    -0.180000       12.0110           0
     16423 MEMB     124      POPC     H13X     HAL2     0.900000E-01   1.00800           0
     16424 MEMB     124      POPC     H13Y     HAL2     0.900000E-01   1.00800           0
     16425 MEMB     124      POPC     C314     CTL2    -0.180000       12.0110           0
     16426 MEMB     124      POPC     H14X     HAL2     0.900000E-01   1.00800           0
     16427 MEMB     124      POPC     H14Y     HAL2     0.900000E-01   1.00800           0
     16428 MEMB     124      POPC     C315     CTL2    -0.180000       12.0110           0
     16429 MEMB     124      POPC     H15X     HAL2     0.900000E-01   1.00800           0
     16430 MEMB     124      POPC     H15Y     HAL2     0.900000E-01   1.00800           0
     16431 MEMB     124      POPC     C316     CTL3    -0.270000       12.0110           0
     16432 MEMB     124      POPC     H16X     HAL3     0.900000E-01   1.00800           0
     16433 MEMB     124      POPC     H16Y     HAL3     0.900000E-01   1.00800           0
     16434 MEMB     124      POPC     H16Z     HAL3     0.900000E-01   1.00800           0
     16435 MEMB     125      POPC     N        NTL     -0.600000       14.0070           0
     16436 MEMB     125      POPC     C12      CTL2    -0.100000       12.0110           0
     16437 MEMB     125      POPC     H12A     HL       0.250000       1.00800           0
     16438 MEMB     125      POPC     H12B     HL       0.250000       1.00800           0
     16439 MEMB     125      POPC     C13      CTL5    -0.350000       12.0110           0
     16440 MEMB     125      POPC     H13A     HL       0.250000       1.00800           0
     16441 MEMB     125      POPC     H13B     HL       0.250000       1.00800           0
     16442 MEMB     125      POPC     H13C     HL       0.250000       1.00800           0
     16443 MEMB     125      POPC     C14      CTL5    -0.350000       12.0110           0
     16444 MEMB     125      POPC     H14A     HL       0.250000       1.00800           0
     16445 MEMB     125      POPC     H14B     HL       0.250000       1.00800           0
     16446 MEMB     125      POPC     H14C     HL       0.250000       1.00800           0
     16447 MEMB     125      POPC     C15      CTL5    -0.350000       12.0110           0
     16448 MEMB     125      POPC     H15A     HL       0.250000       1.00800           0
     16449 MEMB     125      POPC     H15B     HL       0.250000       1.00800           0
     16450 MEMB     125      POPC     H15C     HL       0.250000       1.00800           0
     16451 MEMB     125      POPC     C11      CTL2    -0.800000E-01   12.0110           0
     16452 MEMB     125      POPC     H11A     HAL2     0.900000E-01   1.00800           0
     16453 MEMB     125      POPC     H11B     HAL2     0.900000E-01   1.00800           0
     16454 MEMB     125      POPC     P        PL        1.50000       30.9740           0
     16455 MEMB     125      POPC     O13      O2L     -0.780000       15.9994           0
     16456 MEMB     125      POPC     O14      O2L     -0.780000       15.9994           0
     16457 MEMB     125      POPC     O12      OSLP    -0.570000       15.9994           0
     16458 MEMB     125      POPC     O11      OSLP    -0.570000       15.9994           0
     16459 MEMB     125      POPC     C1       CTL2    -0.800000E-01   12.0110           0
     16460 MEMB     125      POPC     HA       HAL2     0.900000E-01   1.00800           0
     16461 MEMB     125      POPC     HB       HAL2     0.900000E-01   1.00800           0
     16462 MEMB     125      POPC     C2       CTL1     0.170000       12.0110           0
     16463 MEMB     125      POPC     HS       HAL1     0.900000E-01   1.00800           0
     16464 MEMB     125      POPC     O21      OSL     -0.490000       15.9994           0
     16465 MEMB     125      POPC     C21      CL       0.900000       12.0110           0
     16466 MEMB     125      POPC     O22      OBL     -0.630000       15.9994           0
     16467 MEMB     125      POPC     C22      CTL2    -0.220000       12.0110           0
     16468 MEMB     125      POPC     H2R      HAL2     0.900000E-01   1.00800           0
     16469 MEMB     125      POPC     H2S      HAL2     0.900000E-01   1.00800           0
     16470 MEMB     125      POPC     C3       CTL2     0.800000E-01   12.0110           0
     16471 MEMB     125      POPC     HX       HAL2     0.900000E-01   1.00800           0
     16472 MEMB     125      POPC     HY       HAL2     0.900000E-01   1.00800           0
     16473 MEMB     125      POPC     O31      OSL     -0.490000       15.9994           0
     16474 MEMB     125      POPC     C31      CL       0.900000       12.0110           0
     16475 MEMB     125      POPC     O32      OBL     -0.630000       15.9994           0
     16476 MEMB     125      POPC     C32      CTL2    -0.220000       12.0110           0
     16477 MEMB     125      POPC     H2X      HAL2     0.900000E-01   1.00800           0
     16478 MEMB     125      POPC     H2Y      HAL2     0.900000E-01   1.00800           0
     16479 MEMB     125      POPC     C23      CTL2    -0.180000       12.0110           0
     16480 MEMB     125      POPC     H3R      HAL2     0.900000E-01   1.00800           0
     16481 MEMB     125      POPC     H3S      HAL2     0.900000E-01   1.00800           0
     16482 MEMB     125      POPC     C24      CTL2    -0.180000       12.0110           0
     16483 MEMB     125      POPC     H4R      HAL2     0.900000E-01   1.00800           0
     16484 MEMB     125      POPC     H4S      HAL2     0.900000E-01   1.00800           0
     16485 MEMB     125      POPC     C25      CTL2    -0.180000       12.0110           0
     16486 MEMB     125      POPC     H5R      HAL2     0.900000E-01   1.00800           0
     16487 MEMB     125      POPC     H5S      HAL2     0.900000E-01   1.00800           0
     16488 MEMB     125      POPC     C26      CTL2    -0.180000       12.0110           0
     16489 MEMB     125      POPC     H6R      HAL2     0.900000E-01   1.00800           0
     16490 MEMB     125      POPC     H6S      HAL2     0.900000E-01   1.00800           0
     16491 MEMB     125      POPC     C27      CTL2    -0.180000       12.0110           0
     16492 MEMB     125      POPC     H7R      HAL2     0.900000E-01   1.00800           0
     16493 MEMB     125      POPC     H7S      HAL2     0.900000E-01   1.00800           0
     16494 MEMB     125      POPC     C28      CTL2    -0.180000       12.0110           0
     16495 MEMB     125      POPC     H8R      HAL2     0.900000E-01   1.00800           0
     16496 MEMB     125      POPC     H8S      HAL2     0.900000E-01   1.00800           0
     16497 MEMB     125      POPC     C29      CEL1    -0.150000       12.0110           0
     16498 MEMB     125      POPC     H91      HEL1     0.150000       1.00800           0
     16499 MEMB     125      POPC     C210     CEL1    -0.150000       12.0110           0
     16500 MEMB     125      POPC     H101     HEL1     0.150000       1.00800           0
     16501 MEMB     125      POPC     C211     CTL2    -0.180000       12.0110           0
     16502 MEMB     125      POPC     H11R     HAL2     0.900000E-01   1.00800           0
     16503 MEMB     125      POPC     H11S     HAL2     0.900000E-01   1.00800           0
     16504 MEMB     125      POPC     C212     CTL2    -0.180000       12.0110           0
     16505 MEMB     125      POPC     H12R     HAL2     0.900000E-01   1.00800           0
     16506 MEMB     125      POPC     H12S     HAL2     0.900000E-01   1.00800           0
     16507 MEMB     125      POPC     C213     CTL2    -0.180000       12.0110           0
     16508 MEMB     125      POPC     H13R     HAL2     0.900000E-01   1.00800           0
     16509 MEMB     125      POPC     H13S     HAL2     0.900000E-01   1.00800           0
     16510 MEMB     125      POPC     C214     CTL2    -0.180000       12.0110           0
     16511 MEMB     125      POPC     H14R     HAL2     0.900000E-01   1.00800           0
     16512 MEMB     125      POPC     H14S     HAL2     0.900000E-01   1.00800           0
     16513 MEMB     125      POPC     C215     CTL2    -0.180000       12.0110           0
     16514 MEMB     125      POPC     H15R     HAL2     0.900000E-01   1.00800           0
     16515 MEMB     125      POPC     H15S     HAL2     0.900000E-01   1.00800           0
     16516 MEMB     125      POPC     C216     CTL2    -0.180000       12.0110           0
     16517 MEMB     125      POPC     H16R     HAL2     0.900000E-01   1.00800           0
     16518 MEMB     125      POPC     H16S     HAL2     0.900000E-01   1.00800           0
     16519 MEMB     125      POPC     C217     CTL2    -0.180000       12.0110           0
     16520 MEMB     125      POPC     H17R     HAL2     0.900000E-01   1.00800           0
     16521 MEMB     125      POPC     H17S     HAL2     0.900000E-01   1.00800           0
     16522 MEMB     125      POPC     C218     CTL3    -0.270000       12.0110           0
     16523 MEMB     125      POPC     H18R     HAL3     0.900000E-01   1.00800           0
     16524 MEMB     125      POPC     H18S     HAL3     0.900000E-01   1.00800           0
     16525 MEMB     125      POPC     H18T     HAL3     0.900000E-01   1.00800           0
     16526 MEMB     125      POPC     C33      CTL2    -0.180000       12.0110           0
     16527 MEMB     125      POPC     H3X      HAL2     0.900000E-01   1.00800           0
     16528 MEMB     125      POPC     H3Y      HAL2     0.900000E-01   1.00800           0
     16529 MEMB     125      POPC     C34      CTL2    -0.180000       12.0110           0
     16530 MEMB     125      POPC     H4X      HAL2     0.900000E-01   1.00800           0
     16531 MEMB     125      POPC     H4Y      HAL2     0.900000E-01   1.00800           0
     16532 MEMB     125      POPC     C35      CTL2    -0.180000       12.0110           0
     16533 MEMB     125      POPC     H5X      HAL2     0.900000E-01   1.00800           0
     16534 MEMB     125      POPC     H5Y      HAL2     0.900000E-01   1.00800           0
     16535 MEMB     125      POPC     C36      CTL2    -0.180000       12.0110           0
     16536 MEMB     125      POPC     H6X      HAL2     0.900000E-01   1.00800           0
     16537 MEMB     125      POPC     H6Y      HAL2     0.900000E-01   1.00800           0
     16538 MEMB     125      POPC     C37      CTL2    -0.180000       12.0110           0
     16539 MEMB     125      POPC     H7X      HAL2     0.900000E-01   1.00800           0
     16540 MEMB     125      POPC     H7Y      HAL2     0.900000E-01   1.00800           0
     16541 MEMB     125      POPC     C38      CTL2    -0.180000       12.0110           0
     16542 MEMB     125      POPC     H8X      HAL2     0.900000E-01   1.00800           0
     16543 MEMB     125      POPC     H8Y      HAL2     0.900000E-01   1.00800           0
     16544 MEMB     125      POPC     C39      CTL2    -0.180000       12.0110           0
     16545 MEMB     125      POPC     H9X      HAL2     0.900000E-01   1.00800           0
     16546 MEMB     125      POPC     H9Y      HAL2     0.900000E-01   1.00800           0
     16547 MEMB     125      POPC     C310     CTL2    -0.180000       12.0110           0
     16548 MEMB     125      POPC     H10X     HAL2     0.900000E-01   1.00800           0
     16549 MEMB     125      POPC     H10Y     HAL2     0.900000E-01   1.00800           0
     16550 MEMB     125      POPC     C311     CTL2    -0.180000       12.0110           0
     16551 MEMB     125      POPC     H11X     HAL2     0.900000E-01   1.00800           0
     16552 MEMB     125      POPC     H11Y     HAL2     0.900000E-01   1.00800           0
     16553 MEMB     125      POPC     C312     CTL2    -0.180000       12.0110           0
     16554 MEMB     125      POPC     H12X     HAL2     0.900000E-01   1.00800           0
     16555 MEMB     125      POPC     H12Y     HAL2     0.900000E-01   1.00800           0
     16556 MEMB     125      POPC     C313     CTL2    -0.180000       12.0110           0
     16557 MEMB     125      POPC     H13X     HAL2     0.900000E-01   1.00800           0
     16558 MEMB     125      POPC     H13Y     HAL2     0.900000E-01   1.00800           0
     16559 MEMB     125      POPC     C314     CTL2    -0.180000       12.0110           0
     16560 MEMB     125      POPC     H14X     HAL2     0.900000E-01   1.00800           0
     16561 MEMB     125      POPC     H14Y     HAL2     0.900000E-01   1.00800           0
     16562 MEMB     125      POPC     C315     CTL2    -0.180000       12.0110           0
     16563 MEMB     125      POPC     H15X     HAL2     0.900000E-01   1.00800           0
     16564 MEMB     125      POPC     H15Y     HAL2     0.900000E-01   1.00800           0
     16565 MEMB     125      POPC     C316     CTL3    -0.270000       12.0110           0
     16566 MEMB     125      POPC     H16X     HAL3     0.900000E-01   1.00800           0
     16567 MEMB     125      POPC     H16Y     HAL3     0.900000E-01   1.00800           0
     16568 MEMB     125      POPC     H16Z     HAL3     0.900000E-01   1.00800           0
     16569 MEMB     126      POPC     N        NTL     -0.600000       14.0070           0
     16570 MEMB     126      POPC     C12      CTL2    -0.100000       12.0110           0
     16571 MEMB     126      POPC     H12A     HL       0.250000       1.00800           0
     16572 MEMB     126      POPC     H12B     HL       0.250000       1.00800           0
     16573 MEMB     126      POPC     C13      CTL5    -0.350000       12.0110           0
     16574 MEMB     126      POPC     H13A     HL       0.250000       1.00800           0
     16575 MEMB     126      POPC     H13B     HL       0.250000       1.00800           0
     16576 MEMB     126      POPC     H13C     HL       0.250000       1.00800           0
     16577 MEMB     126      POPC     C14      CTL5    -0.350000       12.0110           0
     16578 MEMB     126      POPC     H14A     HL       0.250000       1.00800           0
     16579 MEMB     126      POPC     H14B     HL       0.250000       1.00800           0
     16580 MEMB     126      POPC     H14C     HL       0.250000       1.00800           0
     16581 MEMB     126      POPC     C15      CTL5    -0.350000       12.0110           0
     16582 MEMB     126      POPC     H15A     HL       0.250000       1.00800           0
     16583 MEMB     126      POPC     H15B     HL       0.250000       1.00800           0
     16584 MEMB     126      POPC     H15C     HL       0.250000       1.00800           0
     16585 MEMB     126      POPC     C11      CTL2    -0.800000E-01   12.0110           0
     16586 MEMB     126      POPC     H11A     HAL2     0.900000E-01   1.00800           0
     16587 MEMB     126      POPC     H11B     HAL2     0.900000E-01   1.00800           0
     16588 MEMB     126      POPC     P        PL        1.50000       30.9740           0
     16589 MEMB     126      POPC     O13      O2L     -0.780000       15.9994           0
     16590 MEMB     126      POPC     O14      O2L     -0.780000       15.9994           0
     16591 MEMB     126      POPC     O12      OSLP    -0.570000       15.9994           0
     16592 MEMB     126      POPC     O11      OSLP    -0.570000       15.9994           0
     16593 MEMB     126      POPC     C1       CTL2    -0.800000E-01   12.0110           0
     16594 MEMB     126      POPC     HA       HAL2     0.900000E-01   1.00800           0
     16595 MEMB     126      POPC     HB       HAL2     0.900000E-01   1.00800           0
     16596 MEMB     126      POPC     C2       CTL1     0.170000       12.0110           0
     16597 MEMB     126      POPC     HS       HAL1     0.900000E-01   1.00800           0
     16598 MEMB     126      POPC     O21      OSL     -0.490000       15.9994           0
     16599 MEMB     126      POPC     C21      CL       0.900000       12.0110           0
     16600 MEMB     126      POPC     O22      OBL     -0.630000       15.9994           0
     16601 MEMB     126      POPC     C22      CTL2    -0.220000       12.0110           0
     16602 MEMB     126      POPC     H2R      HAL2     0.900000E-01   1.00800           0
     16603 MEMB     126      POPC     H2S      HAL2     0.900000E-01   1.00800           0
     16604 MEMB     126      POPC     C3       CTL2     0.800000E-01   12.0110           0
     16605 MEMB     126      POPC     HX       HAL2     0.900000E-01   1.00800           0
     16606 MEMB     126      POPC     HY       HAL2     0.900000E-01   1.00800           0
     16607 MEMB     126      POPC     O31      OSL     -0.490000       15.9994           0
     16608 MEMB     126      POPC     C31      CL       0.900000       12.0110           0
     16609 MEMB     126      POPC     O32      OBL     -0.630000       15.9994           0
     16610 MEMB     126      POPC     C32      CTL2    -0.220000       12.0110           0
     16611 MEMB     126      POPC     H2X      HAL2     0.900000E-01   1.00800           0
     16612 MEMB     126      POPC     H2Y      HAL2     0.900000E-01   1.00800           0
     16613 MEMB     126      POPC     C23      CTL2    -0.180000       12.0110           0
     16614 MEMB     126      POPC     H3R      HAL2     0.900000E-01   1.00800           0
     16615 MEMB     126      POPC     H3S      HAL2     0.900000E-01   1.00800           0
     16616 MEMB     126      POPC     C24      CTL2    -0.180000       12.0110           0
     16617 MEMB     126      POPC     H4R      HAL2     0.900000E-01   1.00800           0
     16618 MEMB     126      POPC     H4S      HAL2     0.900000E-01   1.00800           0
     16619 MEMB     126      POPC     C25      CTL2    -0.180000       12.0110           0
     16620 MEMB     126      POPC     H5R      HAL2     0.900000E-01   1.00800           0
     16621 MEMB     126      POPC     H5S      HAL2     0.900000E-01   1.00800           0
     16622 MEMB     126      POPC     C26      CTL2    -0.180000       12.0110           0
     16623 MEMB     126      POPC     H6R      HAL2     0.900000E-01   1.00800           0
     16624 MEMB     126      POPC     H6S      HAL2     0.900000E-01   1.00800           0
     16625 MEMB     126      POPC     C27      CTL2    -0.180000       12.0110           0
     16626 MEMB     126      POPC     H7R      HAL2     0.900000E-01   1.00800           0
     16627 MEMB     126      POPC     H7S      HAL2     0.900000E-01   1.00800           0
     16628 MEMB     126      POPC     C28      CTL2    -0.180000       12.0110           0
     16629 MEMB     126      POPC     H8R      HAL2     0.900000E-01   1.00800           0
     16630 MEMB     126      POPC     H8S      HAL2     0.900000E-01   1.00800           0
     16631 MEMB     126      POPC     C29      CEL1    -0.150000       12.0110           0
     16632 MEMB     126      POPC     H91      HEL1     0.150000       1.00800           0
     16633 MEMB     126      POPC     C210     CEL1    -0.150000       12.0110           0
     16634 MEMB     126      POPC     H101     HEL1     0.150000       1.00800           0
     16635 MEMB     126      POPC     C211     CTL2    -0.180000       12.0110           0
     16636 MEMB     126      POPC     H11R     HAL2     0.900000E-01   1.00800           0
     16637 MEMB     126      POPC     H11S     HAL2     0.900000E-01   1.00800           0
     16638 MEMB     126      POPC     C212     CTL2    -0.180000       12.0110           0
     16639 MEMB     126      POPC     H12R     HAL2     0.900000E-01   1.00800           0
     16640 MEMB     126      POPC     H12S     HAL2     0.900000E-01   1.00800           0
     16641 MEMB     126      POPC     C213     CTL2    -0.180000       12.0110           0
     16642 MEMB     126      POPC     H13R     HAL2     0.900000E-01   1.00800           0
     16643 MEMB     126      POPC     H13S     HAL2     0.900000E-01   1.00800           0
     16644 MEMB     126      POPC     C214     CTL2    -0.180000       12.0110           0
     16645 MEMB     126      POPC     H14R     HAL2     0.900000E-01   1.00800           0
     16646 MEMB     126      POPC     H14S     HAL2     0.900000E-01   1.00800           0
     16647 MEMB     126      POPC     C215     CTL2    -0.180000       12.0110           0
     16648 MEMB     126      POPC     H15R     HAL2     0.900000E-01   1.00800           0
     16649 MEMB     126      POPC     H15S     HAL2     0.900000E-01   1.00800           0
     16650 MEMB     126      POPC     C216     CTL2    -0.180000       12.0110           0
     16651 MEMB     126      POPC     H16R     HAL2     0.900000E-01   1.00800           0
     16652 MEMB     126      POPC     H16S     HAL2     0.900000E-01   1.00800           0
     16653 MEMB     126      POPC     C217     CTL2    -0.180000       12.0110           0
     16654 MEMB     126      POPC     H17R     HAL2     0.900000E-01   1.00800           0
     16655 MEMB     126      POPC     H17S     HAL2     0.900000E-01   1.00800           0
     16656 MEMB     126      POPC     C218     CTL3    -0.270000       12.0110           0
     16657 MEMB     126      POPC     H18R     HAL3     0.900000E-01   1.00800           0
     16658 MEMB     126      POPC     H18S     HAL3     0.900000E-01   1.00800           0
     16659 MEMB     126      POPC     H18T     HAL3     0.900000E-01   1.00800           0
     16660 MEMB     126      POPC     C33      CTL2    -0.180000       12.0110           0
     16661 MEMB     126      POPC     H3X      HAL2     0.900000E-01   1.00800           0
     16662 MEMB     126      POPC     H3Y      HAL2     0.900000E-01   1.00800           0
     16663 MEMB     126      POPC     C34      CTL2    -0.180000       12.0110           0
     16664 MEMB     126      POPC     H4X      HAL2     0.900000E-01   1.00800           0
     16665 MEMB     126      POPC     H4Y      HAL2     0.900000E-01   1.00800           0
     16666 MEMB     126      POPC     C35      CTL2    -0.180000       12.0110           0
     16667 MEMB     126      POPC     H5X      HAL2     0.900000E-01   1.00800           0
     16668 MEMB     126      POPC     H5Y      HAL2     0.900000E-01   1.00800           0
     16669 MEMB     126      POPC     C36      CTL2    -0.180000       12.0110           0
     16670 MEMB     126      POPC     H6X      HAL2     0.900000E-01   1.00800           0
     16671 MEMB     126      POPC     H6Y      HAL2     0.900000E-01   1.00800           0
     16672 MEMB     126      POPC     C37      CTL2    -0.180000       12.0110           0
     16673 MEMB     126      POPC     H7X      HAL2     0.900000E-01   1.00800           0
     16674 MEMB     126      POPC     H7Y      HAL2     0.900000E-01   1.00800           0
     16675 MEMB     126      POPC     C38      CTL2    -0.180000       12.0110           0
     16676 MEMB     126      POPC     H8X      HAL2     0.900000E-01   1.00800           0
     16677 MEMB     126      POPC     H8Y      HAL2     0.900000E-01   1.00800           0
     16678 MEMB     126      POPC     C39      CTL2    -0.180000       12.0110           0
     16679 MEMB     126      POPC     H9X      HAL2     0.900000E-01   1.00800           0
     16680 MEMB     126      POPC     H9Y      HAL2     0.900000E-01   1.00800           0
     16681 MEMB     126      POPC     C310     CTL2    -0.180000       12.0110           0
     16682 MEMB     126      POPC     H10X     HAL2     0.900000E-01   1.00800           0
     16683 MEMB     126      POPC     H10Y     HAL2     0.900000E-01   1.00800           0
     16684 MEMB     126      POPC     C311     CTL2    -0.180000       12.0110           0
     16685 MEMB     126      POPC     H11X     HAL2     0.900000E-01   1.00800           0
     16686 MEMB     126      POPC     H11Y     HAL2     0.900000E-01   1.00800           0
     16687 MEMB     126      POPC     C312     CTL2    -0.180000       12.0110           0
     16688 MEMB     126      POPC     H12X     HAL2     0.900000E-01   1.00800           0
     16689 MEMB     126      POPC     H12Y     HAL2     0.900000E-01   1.00800           0
     16690 MEMB     126      POPC     C313     CTL2    -0.180000       12.0110           0
     16691 MEMB     126      POPC     H13X     HAL2     0.900000E-01   1.00800           0
     16692 MEMB     126      POPC     H13Y     HAL2     0.900000E-01   1.00800           0
     16693 MEMB     126      POPC     C314     CTL2    -0.180000       12.0110           0
     16694 MEMB     126      POPC     H14X     HAL2     0.900000E-01   1.00800           0
     16695 MEMB     126      POPC     H14Y     HAL2     0.900000E-01   1.00800           0
     16696 MEMB     126      POPC     C315     CTL2    -0.180000       12.0110           0
     16697 MEMB     126      POPC     H15X     HAL2     0.900000E-01   1.00800           0
     16698 MEMB     126      POPC     H15Y     HAL2     0.900000E-01   1.00800           0
     16699 MEMB     126      POPC     C316     CTL3    -0.270000       12.0110           0
     16700 MEMB     126      POPC     H16X     HAL3     0.900000E-01   1.00800           0
     16701 MEMB     126      POPC     H16Y     HAL3     0.900000E-01   1.00800           0
     16702 MEMB     126      POPC     H16Z     HAL3     0.900000E-01   1.00800           0
     16703 MEMB     127      POPC     N        NTL     -0.600000       14.0070           0
     16704 MEMB     127      POPC     C12      CTL2    -0.100000       12.0110           0
     16705 MEMB     127      POPC     H12A     HL       0.250000       1.00800           0
     16706 MEMB     127      POPC     H12B     HL       0.250000       1.00800           0
     16707 MEMB     127      POPC     C13      CTL5    -0.350000       12.0110           0
     16708 MEMB     127      POPC     H13A     HL       0.250000       1.00800           0
     16709 MEMB     127      POPC     H13B     HL       0.250000       1.00800           0
     16710 MEMB     127      POPC     H13C     HL       0.250000       1.00800           0
     16711 MEMB     127      POPC     C14      CTL5    -0.350000       12.0110           0
     16712 MEMB     127      POPC     H14A     HL       0.250000       1.00800           0
     16713 MEMB     127      POPC     H14B     HL       0.250000       1.00800           0
     16714 MEMB     127      POPC     H14C     HL       0.250000       1.00800           0
     16715 MEMB     127      POPC     C15      CTL5    -0.350000       12.0110           0
     16716 MEMB     127      POPC     H15A     HL       0.250000       1.00800           0
     16717 MEMB     127      POPC     H15B     HL       0.250000       1.00800           0
     16718 MEMB     127      POPC     H15C     HL       0.250000       1.00800           0
     16719 MEMB     127      POPC     C11      CTL2    -0.800000E-01   12.0110           0
     16720 MEMB     127      POPC     H11A     HAL2     0.900000E-01   1.00800           0
     16721 MEMB     127      POPC     H11B     HAL2     0.900000E-01   1.00800           0
     16722 MEMB     127      POPC     P        PL        1.50000       30.9740           0
     16723 MEMB     127      POPC     O13      O2L     -0.780000       15.9994           0
     16724 MEMB     127      POPC     O14      O2L     -0.780000       15.9994           0
     16725 MEMB     127      POPC     O12      OSLP    -0.570000       15.9994           0
     16726 MEMB     127      POPC     O11      OSLP    -0.570000       15.9994           0
     16727 MEMB     127      POPC     C1       CTL2    -0.800000E-01   12.0110           0
     16728 MEMB     127      POPC     HA       HAL2     0.900000E-01   1.00800           0
     16729 MEMB     127      POPC     HB       HAL2     0.900000E-01   1.00800           0
     16730 MEMB     127      POPC     C2       CTL1     0.170000       12.0110           0
     16731 MEMB     127      POPC     HS       HAL1     0.900000E-01   1.00800           0
     16732 MEMB     127      POPC     O21      OSL     -0.490000       15.9994           0
     16733 MEMB     127      POPC     C21      CL       0.900000       12.0110           0
     16734 MEMB     127      POPC     O22      OBL     -0.630000       15.9994           0
     16735 MEMB     127      POPC     C22      CTL2    -0.220000       12.0110           0
     16736 MEMB     127      POPC     H2R      HAL2     0.900000E-01   1.00800           0
     16737 MEMB     127      POPC     H2S      HAL2     0.900000E-01   1.00800           0
     16738 MEMB     127      POPC     C3       CTL2     0.800000E-01   12.0110           0
     16739 MEMB     127      POPC     HX       HAL2     0.900000E-01   1.00800           0
     16740 MEMB     127      POPC     HY       HAL2     0.900000E-01   1.00800           0
     16741 MEMB     127      POPC     O31      OSL     -0.490000       15.9994           0
     16742 MEMB     127      POPC     C31      CL       0.900000       12.0110           0
     16743 MEMB     127      POPC     O32      OBL     -0.630000       15.9994           0
     16744 MEMB     127      POPC     C32      CTL2    -0.220000       12.0110           0
     16745 MEMB     127      POPC     H2X      HAL2     0.900000E-01   1.00800           0
     16746 MEMB     127      POPC     H2Y      HAL2     0.900000E-01   1.00800           0
     16747 MEMB     127      POPC     C23      CTL2    -0.180000       12.0110           0
     16748 MEMB     127      POPC     H3R      HAL2     0.900000E-01   1.00800           0
     16749 MEMB     127      POPC     H3S      HAL2     0.900000E-01   1.00800           0
     16750 MEMB     127      POPC     C24      CTL2    -0.180000       12.0110           0
     16751 MEMB     127      POPC     H4R      HAL2     0.900000E-01   1.00800           0
     16752 MEMB     127      POPC     H4S      HAL2     0.900000E-01   1.00800           0
     16753 MEMB     127      POPC     C25      CTL2    -0.180000       12.0110           0
     16754 MEMB     127      POPC     H5R      HAL2     0.900000E-01   1.00800           0
     16755 MEMB     127      POPC     H5S      HAL2     0.900000E-01   1.00800           0
     16756 MEMB     127      POPC     C26      CTL2    -0.180000       12.0110           0
     16757 MEMB     127      POPC     H6R      HAL2     0.900000E-01   1.00800           0
     16758 MEMB     127      POPC     H6S      HAL2     0.900000E-01   1.00800           0
     16759 MEMB     127      POPC     C27      CTL2    -0.180000       12.0110           0
     16760 MEMB     127      POPC     H7R      HAL2     0.900000E-01   1.00800           0
     16761 MEMB     127      POPC     H7S      HAL2     0.900000E-01   1.00800           0
     16762 MEMB     127      POPC     C28      CTL2    -0.180000       12.0110           0
     16763 MEMB     127      POPC     H8R      HAL2     0.900000E-01   1.00800           0
     16764 MEMB     127      POPC     H8S      HAL2     0.900000E-01   1.00800           0
     16765 MEMB     127      POPC     C29      CEL1    -0.150000       12.0110           0
     16766 MEMB     127      POPC     H91      HEL1     0.150000       1.00800           0
     16767 MEMB     127      POPC     C210     CEL1    -0.150000       12.0110           0
     16768 MEMB     127      POPC     H101     HEL1     0.150000       1.00800           0
     16769 MEMB     127      POPC     C211     CTL2    -0.180000       12.0110           0
     16770 MEMB     127      POPC     H11R     HAL2     0.900000E-01   1.00800           0
     16771 MEMB     127      POPC     H11S     HAL2     0.900000E-01   1.00800           0
     16772 MEMB     127      POPC     C212     CTL2    -0.180000       12.0110           0
     16773 MEMB     127      POPC     H12R     HAL2     0.900000E-01   1.00800           0
     16774 MEMB     127      POPC     H12S     HAL2     0.900000E-01   1.00800           0
     16775 MEMB     127      POPC     C213     CTL2    -0.180000       12.0110           0
     16776 MEMB     127      POPC     H13R     HAL2     0.900000E-01   1.00800           0
     16777 MEMB     127      POPC     H13S     HAL2     0.900000E-01   1.00800           0
     16778 MEMB     127      POPC     C214     CTL2    -0.180000       12.0110           0
     16779 MEMB     127      POPC     H14R     HAL2     0.900000E-01   1.00800           0
     16780 MEMB     127      POPC     H14S     HAL2     0.900000E-01   1.00800           0
     16781 MEMB     127      POPC     C215     CTL2    -0.180000       12.0110           0
     16782 MEMB     127      POPC     H15R     HAL2     0.900000E-01   1.00800           0
     16783 MEMB     127      POPC     H15S     HAL2     0.900000E-01   1.00800           0
     16784 MEMB     127      POPC     C216     CTL2    -0.180000       12.0110           0
     16785 MEMB     127      POPC     H16R     HAL2     0.900000E-01   1.00800           0
     16786 MEMB     127      POPC     H16S     HAL2     0.900000E-01   1.00800           0
     16787 MEMB     127      POPC     C217     CTL2    -0.180000       12.0110           0
     16788 MEMB     127      POPC     H17R     HAL2     0.900000E-01   1.00800           0
     16789 MEMB     127      POPC     H17S     HAL2     0.900000E-01   1.00800           0
     16790 MEMB     127      POPC     C218     CTL3    -0.270000       12.0110           0
     16791 MEMB     127      POPC     H18R     HAL3     0.900000E-01   1.00800           0
     16792 MEMB     127      POPC     H18S     HAL3     0.900000E-01   1.00800           0
     16793 MEMB     127      POPC     H18T     HAL3     0.900000E-01   1.00800           0
     16794 MEMB     127      POPC     C33      CTL2    -0.180000       12.0110           0
     16795 MEMB     127      POPC     H3X      HAL2     0.900000E-01   1.00800           0
     16796 MEMB     127      POPC     H3Y      HAL2     0.900000E-01   1.00800           0
     16797 MEMB     127      POPC     C34      CTL2    -0.180000       12.0110           0
     16798 MEMB     127      POPC     H4X      HAL2     0.900000E-01   1.00800           0
     16799 MEMB     127      POPC     H4Y      HAL2     0.900000E-01   1.00800           0
     16800 MEMB     127      POPC     C35      CTL2    -0.180000       12.0110           0
     16801 MEMB     127      POPC     H5X      HAL2     0.900000E-01   1.00800           0
     16802 MEMB     127      POPC     H5Y      HAL2     0.900000E-01   1.00800           0
     16803 MEMB     127      POPC     C36      CTL2    -0.180000       12.0110           0
     16804 MEMB     127      POPC     H6X      HAL2     0.900000E-01   1.00800           0
     16805 MEMB     127      POPC     H6Y      HAL2     0.900000E-01   1.00800           0
     16806 MEMB     127      POPC     C37      CTL2    -0.180000       12.0110           0
     16807 MEMB     127      POPC     H7X      HAL2     0.900000E-01   1.00800           0
     16808 MEMB     127      POPC     H7Y      HAL2     0.900000E-01   1.00800           0
     16809 MEMB     127      POPC     C38      CTL2    -0.180000       12.0110           0
     16810 MEMB     127      POPC     H8X      HAL2     0.900000E-01   1.00800           0
     16811 MEMB     127      POPC     H8Y      HAL2     0.900000E-01   1.00800           0
     16812 MEMB     127      POPC     C39      CTL2    -0.180000       12.0110           0
     16813 MEMB     127      POPC     H9X      HAL2     0.900000E-01   1.00800           0
     16814 MEMB     127      POPC     H9Y      HAL2     0.900000E-01   1.00800           0
     16815 MEMB     127      POPC     C310     CTL2    -0.180000       12.0110           0
     16816 MEMB     127      POPC     H10X     HAL2     0.900000E-01   1.00800           0
     16817 MEMB     127      POPC     H10Y     HAL2     0.900000E-01   1.00800           0
     16818 MEMB     127      POPC     C311     CTL2    -0.180000       12.0110           0
     16819 MEMB     127      POPC     H11X     HAL2     0.900000E-01   1.00800           0
     16820 MEMB     127      POPC     H11Y     HAL2     0.900000E-01   1.00800           0
     16821 MEMB     127      POPC     C312     CTL2    -0.180000       12.0110           0
     16822 MEMB     127      POPC     H12X     HAL2     0.900000E-01   1.00800           0
     16823 MEMB     127      POPC     H12Y     HAL2     0.900000E-01   1.00800           0
     16824 MEMB     127      POPC     C313     CTL2    -0.180000       12.0110           0
     16825 MEMB     127      POPC     H13X     HAL2     0.900000E-01   1.00800           0
     16826 MEMB     127      POPC     H13Y     HAL2     0.900000E-01   1.00800           0
     16827 MEMB     127      POPC     C314     CTL2    -0.180000       12.0110           0
     16828 MEMB     127      POPC     H14X     HAL2     0.900000E-01   1.00800           0
     16829 MEMB     127      POPC     H14Y     HAL2     0.900000E-01   1.00800           0
     16830 MEMB     127      POPC     C315     CTL2    -0.180000       12.0110           0
     16831 MEMB     127      POPC     H15X     HAL2     0.900000E-01   1.00800           0
     16832 MEMB     127      POPC     H15Y     HAL2     0.900000E-01   1.00800           0
     16833 MEMB     127      POPC     C316     CTL3    -0.270000       12.0110           0
     16834 MEMB     127      POPC     H16X     HAL3     0.900000E-01   1.00800           0
     16835 MEMB     127      POPC     H16Y     HAL3     0.900000E-01   1.00800           0
     16836 MEMB     127      POPC     H16Z     HAL3     0.900000E-01   1.00800           0
     16837 MEMB     128      POPC     N        NTL     -0.600000       14.0070           0
     16838 MEMB     128      POPC     C12      CTL2    -0.100000       12.0110           0
     16839 MEMB     128      POPC     H12A     HL       0.250000       1.00800           0
     16840 MEMB     128      POPC     H12B     HL       0.250000       1.00800           0
     16841 MEMB     128      POPC     C13      CTL5    -0.350000       12.0110           0
     16842 MEMB     128      POPC     H13A     HL       0.250000       1.00800           0
     16843 MEMB     128      POPC     H13B     HL       0.250000       1.00800           0
     16844 MEMB     128      POPC     H13C     HL       0.250000       1.00800           0
     16845 MEMB     128      POPC     C14      CTL5    -0.350000       12.0110           0
     16846 MEMB     128      POPC     H14A     HL       0.250000       1.00800           0
     16847 MEMB     128      POPC     H14B     HL       0.250000       1.00800           0
     16848 MEMB     128      POPC     H14C     HL       0.250000       1.00800           0
     16849 MEMB     128      POPC     C15      CTL5    -0.350000       12.0110           0
     16850 MEMB     128      POPC     H15A     HL       0.250000       1.00800           0
     16851 MEMB     128      POPC     H15B     HL       0.250000       1.00800           0
     16852 MEMB     128      POPC     H15C     HL       0.250000       1.00800           0
     16853 MEMB     128      POPC     C11      CTL2    -0.800000E-01   12.0110           0
     16854 MEMB     128      POPC     H11A     HAL2     0.900000E-01   1.00800           0
     16855 MEMB     128      POPC     H11B     HAL2     0.900000E-01   1.00800           0
     16856 MEMB     128      POPC     P        PL        1.50000       30.9740           0
     16857 MEMB     128      POPC     O13      O2L     -0.780000       15.9994           0
     16858 MEMB     128      POPC     O14      O2L     -0.780000       15.9994           0
     16859 MEMB     128      POPC     O12      OSLP    -0.570000       15.9994           0
     16860 MEMB     128      POPC     O11      OSLP    -0.570000       15.9994           0
     16861 MEMB     128      POPC     C1       CTL2    -0.800000E-01   12.0110           0
     16862 MEMB     128      POPC     HA       HAL2     0.900000E-01   1.00800           0
     16863 MEMB     128      POPC     HB       HAL2     0.900000E-01   1.00800           0
     16864 MEMB     128      POPC     C2       CTL1     0.170000       12.0110           0
     16865 MEMB     128      POPC     HS       HAL1     0.900000E-01   1.00800           0
     16866 MEMB     128      POPC     O21      OSL     -0.490000       15.9994           0
     16867 MEMB     128      POPC     C21      CL       0.900000       12.0110           0
     16868 MEMB     128      POPC     O22      OBL     -0.630000       15.9994           0
     16869 MEMB     128      POPC     C22      CTL2    -0.220000       12.0110           0
     16870 MEMB     128      POPC     H2R      HAL2     0.900000E-01   1.00800           0
     16871 MEMB     128      POPC     H2S      HAL2     0.900000E-01   1.00800           0
     16872 MEMB     128      POPC     C3       CTL2     0.800000E-01   12.0110           0
     16873 MEMB     128      POPC     HX       HAL2     0.900000E-01   1.00800           0
     16874 MEMB     128      POPC     HY       HAL2     0.900000E-01   1.00800           0
     16875 MEMB     128      POPC     O31      OSL     -0.490000       15.9994           0
     16876 MEMB     128      POPC     C31      CL       0.900000       12.0110           0
     16877 MEMB     128      POPC     O32      OBL     -0.630000       15.9994           0
     16878 MEMB     128      POPC     C32      CTL2    -0.220000       12.0110           0
     16879 MEMB     128      POPC     H2X      HAL2     0.900000E-01   1.00800           0
     16880 MEMB     128      POPC     H2Y      HAL2     0.900000E-01   1.00800           0
     16881 MEMB     128      POPC     C23      CTL2    -0.180000       12.0110           0
     16882 MEMB     128      POPC     H3R      HAL2     0.900000E-01   1.00800           0
     16883 MEMB     128      POPC     H3S      HAL2     0.900000E-01   1.00800           0
     16884 MEMB     128      POPC     C24      CTL2    -0.180000       12.0110           0
     16885 MEMB     128      POPC     H4R      HAL2     0.900000E-01   1.00800           0
     16886 MEMB     128      POPC     H4S      HAL2     0.900000E-01   1.00800           0
     16887 MEMB     128      POPC     C25      CTL2    -0.180000       12.0110           0
     16888 MEMB     128      POPC     H5R      HAL2     0.900000E-01   1.00800           0
     16889 MEMB     128      POPC     H5S      HAL2     0.900000E-01   1.00800           0
     16890 MEMB     128      POPC     C26      CTL2    -0.180000       12.0110           0
     16891 MEMB     128      POPC     H6R      HAL2     0.900000E-01   1.00800           0
     16892 MEMB     128      POPC     H6S      HAL2     0.900000E-01   1.00800           0
     16893 MEMB     128      POPC     C27      CTL2    -0.180000       12.0110           0
     16894 MEMB     128      POPC     H7R      HAL2     0.900000E-01   1.00800           0
     16895 MEMB     128      POPC     H7S      HAL2     0.900000E-01   1.00800           0
     16896 MEMB     128      POPC     C28      CTL2    -0.180000       12.0110           0
     16897 MEMB     128      POPC     H8R      HAL2     0.900000E-01   1.00800           0
     16898 MEMB     128      POPC     H8S      HAL2     0.900000E-01   1.00800           0
     16899 MEMB     128      POPC     C29      CEL1    -0.150000       12.0110           0
     16900 MEMB     128      POPC     H91      HEL1     0.150000       1.00800           0
     16901 MEMB     128      POPC     C210     CEL1    -0.150000       12.0110           0
     16902 MEMB     128      POPC     H101     HEL1     0.150000       1.00800           0
     16903 MEMB     128      POPC     C211     CTL2    -0.180000       12.0110           0
     16904 MEMB     128      POPC     H11R     HAL2     0.900000E-01   1.00800           0
     16905 MEMB     128      POPC     H11S     HAL2     0.900000E-01   1.00800           0
     16906 MEMB     128      POPC     C212     CTL2    -0.180000       12.0110           0
     16907 MEMB     128      POPC     H12R     HAL2     0.900000E-01   1.00800           0
     16908 MEMB     128      POPC     H12S     HAL2     0.900000E-01   1.00800           0
     16909 MEMB     128      POPC     C213     CTL2    -0.180000       12.0110           0
     16910 MEMB     128      POPC     H13R     HAL2     0.900000E-01   1.00800           0
     16911 MEMB     128      POPC     H13S     HAL2     0.900000E-01   1.00800           0
     16912 MEMB     128      POPC     C214     CTL2    -0.180000       12.0110           0
     16913 MEMB     128      POPC     H14R     HAL2     0.900000E-01   1.00800           0
     16914 MEMB     128      POPC     H14S     HAL2     0.900000E-01   1.00800           0
     16915 MEMB     128      POPC     C215     CTL2    -0.180000       12.0110           0
     16916 MEMB     128      POPC     H15R     HAL2     0.900000E-01   1.00800           0
     16917 MEMB     128      POPC     H15S     HAL2     0.900000E-01   1.00800           0
     16918 MEMB     128      POPC     C216     CTL2    -0.180000       12.0110           0
     16919 MEMB     128      POPC     H16R     HAL2     0.900000E-01   1.00800           0
     16920 MEMB     128      POPC     H16S     HAL2     0.900000E-01   1.00800           0
     16921 MEMB     128      POPC     C217     CTL2    -0.180000       12.0110           0
     16922 MEMB     128      POPC     H17R     HAL2     0.900000E-01   1.00800           0
     16923 MEMB     128      POPC     H17S     HAL2     0.900000E-01   1.00800           0
     16924 MEMB     128      POPC     C218     CTL3    -0.270000       12.0110           0
     16925 MEMB     128      POPC     H18R     HAL3     0.900000E-01   1.00800           0
     16926 MEMB     128      POPC     H18S     HAL3     0.900000E-01   1.00800           0
     16927 MEMB     128      POPC     H18T     HAL3     0.900000E-01   1.00800           0
     16928 MEMB     128      POPC     C33      CTL2    -0.180000       12.0110           0
     16929 MEMB     128      POPC     H3X      HAL2     0.900000E-01   1.00800           0
     16930 MEMB     128      POPC     H3Y      HAL2     0.900000E-01   1.00800           0
     16931 MEMB     128      POPC     C34      CTL2    -0.180000       12.0110           0
     16932 MEMB     128      POPC     H4X      HAL2     0.900000E-01   1.00800           0
     16933 MEMB     128      POPC     H4Y      HAL2     0.900000E-01   1.00800           0
     16934 MEMB     128      POPC     C35      CTL2    -0.180000       12.0110           0
     16935 MEMB     128      POPC     H5X      HAL2     0.900000E-01   1.00800           0
     16936 MEMB     128      POPC     H5Y      HAL2     0.900000E-01   1.00800           0
     16937 MEMB     128      POPC     C36      CTL2    -0.180000       12.0110           0
     16938 MEMB     128      POPC     H6X      HAL2     0.900000E-01   1.00800           0
     16939 MEMB     128      POPC     H6Y      HAL2     0.900000E-01   1.00800           0
     16940 MEMB     128      POPC     C37      CTL2    -0.180000       12.0110           0
     16941 MEMB     128      POPC     H7X      HAL2     0.900000E-01   1.00800           0
     16942 MEMB     128      POPC     H7Y      HAL2     0.900000E-01   1.00800           0
     16943 MEMB     128      POPC     C38      CTL2    -0.180000       12.0110           0
     16944 MEMB     128      POPC     H8X      HAL2     0.900000E-01   1.00800           0
     16945 MEMB     128      POPC     H8Y      HAL2     0.900000E-01   1.00800           0
     16946 MEMB     128      POPC     C39      CTL2    -0.180000       12.0110           0
     16947 MEMB     128      POPC     H9X      HAL2     0.900000E-01   1.00800           0
     16948 MEMB     128      POPC     H9Y      HAL2     0.900000E-01   1.00800           0
     16949 MEMB     128      POPC     C310     CTL2    -0.180000       12.0110           0
     16950 MEMB     128      POPC     H10X     HAL2     0.900000E-01   1.00800           0
     16951 MEMB     128      POPC     H10Y     HAL2     0.900000E-01   1.00800           0
     16952 MEMB     128      POPC     C311     CTL2    -0.180000       12.0110           0
     16953 MEMB     128      POPC     H11X     HAL2     0.900000E-01   1.00800           0
     16954 MEMB     128      POPC     H11Y     HAL2     0.900000E-01   1.00800           0
     16955 MEMB     128      POPC     C312     CTL2    -0.180000       12.0110           0
     16956 MEMB     128      POPC     H12X     HAL2     0.900000E-01   1.00800           0
     16957 MEMB     128      POPC     H12Y     HAL2     0.900000E-01   1.00800           0
     16958 MEMB     128      POPC     C313     CTL2    -0.180000       12.0110           0
     16959 MEMB     128      POPC     H13X     HAL2     0.900000E-01   1.00800           0
     16960 MEMB     128      POPC     H13Y     HAL2     0.900000E-01   1.00800           0
     16961 MEMB     128      POPC     C314     CTL2    -0.180000       12.0110           0
     16962 MEMB     128      POPC     H14X     HAL2     0.900000E-01   1.00800           0
     16963 MEMB     128      POPC     H14Y     HAL2     0.900000E-01   1.00800           0
     16964 MEMB     128      POPC     C315     CTL2    -0.180000       12.0110           0
     16965 MEMB     128      POPC     H15X     HAL2     0.900000E-01   1.00800           0
     16966 MEMB     128      POPC     H15Y     HAL2     0.900000E-01   1.00800           0
     16967 MEMB     128      POPC     C316     CTL3    -0.270000       12.0110           0
     16968 MEMB     128      POPC     H16X     HAL3     0.900000E-01   1.00800           0
     16969 MEMB     128      POPC     H16Y     HAL3     0.900000E-01   1.00800           0
     16970 MEMB     128      POPC     H16Z     HAL3     0.900000E-01   1.00800           0
     16971 MEMB     129      POPC     N        NTL     -0.600000       14.0070           0
     16972 MEMB     129      POPC     C12      CTL2    -0.100000       12.0110           0
     16973 MEMB     129      POPC     H12A     HL       0.250000       1.00800           0
     16974 MEMB     129      POPC     H12B     HL       0.250000       1.00800           0
     16975 MEMB     129      POPC     C13      CTL5    -0.350000       12.0110           0
     16976 MEMB     129      POPC     H13A     HL       0.250000       1.00800           0
     16977 MEMB     129      POPC     H13B     HL       0.250000       1.00800           0
     16978 MEMB     129      POPC     H13C     HL       0.250000       1.00800           0
     16979 MEMB     129      POPC     C14      CTL5    -0.350000       12.0110           0
     16980 MEMB     129      POPC     H14A     HL       0.250000       1.00800           0
     16981 MEMB     129      POPC     H14B     HL       0.250000       1.00800           0
     16982 MEMB     129      POPC     H14C     HL       0.250000       1.00800           0
     16983 MEMB     129      POPC     C15      CTL5    -0.350000       12.0110           0
     16984 MEMB     129      POPC     H15A     HL       0.250000       1.00800           0
     16985 MEMB     129      POPC     H15B     HL       0.250000       1.00800           0
     16986 MEMB     129      POPC     H15C     HL       0.250000       1.00800           0
     16987 MEMB     129      POPC     C11      CTL2    -0.800000E-01   12.0110           0
     16988 MEMB     129      POPC     H11A     HAL2     0.900000E-01   1.00800           0
     16989 MEMB     129      POPC     H11B     HAL2     0.900000E-01   1.00800           0
     16990 MEMB     129      POPC     P        PL        1.50000       30.9740           0
     16991 MEMB     129      POPC     O13      O2L     -0.780000       15.9994           0
     16992 MEMB     129      POPC     O14      O2L     -0.780000       15.9994           0
     16993 MEMB     129      POPC     O12      OSLP    -0.570000       15.9994           0
     16994 MEMB     129      POPC     O11      OSLP    -0.570000       15.9994           0
     16995 MEMB     129      POPC     C1       CTL2    -0.800000E-01   12.0110           0
     16996 MEMB     129      POPC     HA       HAL2     0.900000E-01   1.00800           0
     16997 MEMB     129      POPC     HB       HAL2     0.900000E-01   1.00800           0
     16998 MEMB     129      POPC     C2       CTL1     0.170000       12.0110           0
     16999 MEMB     129      POPC     HS       HAL1     0.900000E-01   1.00800           0
     17000 MEMB     129      POPC     O21      OSL     -0.490000       15.9994           0
     17001 MEMB     129      POPC     C21      CL       0.900000       12.0110           0
     17002 MEMB     129      POPC     O22      OBL     -0.630000       15.9994           0
     17003 MEMB     129      POPC     C22      CTL2    -0.220000       12.0110           0
     17004 MEMB     129      POPC     H2R      HAL2     0.900000E-01   1.00800           0
     17005 MEMB     129      POPC     H2S      HAL2     0.900000E-01   1.00800           0
     17006 MEMB     129      POPC     C3       CTL2     0.800000E-01   12.0110           0
     17007 MEMB     129      POPC     HX       HAL2     0.900000E-01   1.00800           0
     17008 MEMB     129      POPC     HY       HAL2     0.900000E-01   1.00800           0
     17009 MEMB     129      POPC     O31      OSL     -0.490000       15.9994           0
     17010 MEMB     129      POPC     C31      CL       0.900000       12.0110           0
     17011 MEMB     129      POPC     O32      OBL     -0.630000       15.9994           0
     17012 MEMB     129      POPC     C32      CTL2    -0.220000       12.0110           0
     17013 MEMB     129      POPC     H2X      HAL2     0.900000E-01   1.00800           0
     17014 MEMB     129      POPC     H2Y      HAL2     0.900000E-01   1.00800           0
     17015 MEMB     129      POPC     C23      CTL2    -0.180000       12.0110           0
     17016 MEMB     129      POPC     H3R      HAL2     0.900000E-01   1.00800           0
     17017 MEMB     129      POPC     H3S      HAL2     0.900000E-01   1.00800           0
     17018 MEMB     129      POPC     C24      CTL2    -0.180000       12.0110           0
     17019 MEMB     129      POPC     H4R      HAL2     0.900000E-01   1.00800           0
     17020 MEMB     129      POPC     H4S      HAL2     0.900000E-01   1.00800           0
     17021 MEMB     129      POPC     C25      CTL2    -0.180000       12.0110           0
     17022 MEMB     129      POPC     H5R      HAL2     0.900000E-01   1.00800           0
     17023 MEMB     129      POPC     H5S      HAL2     0.900000E-01   1.00800           0
     17024 MEMB     129      POPC     C26      CTL2    -0.180000       12.0110           0
     17025 MEMB     129      POPC     H6R      HAL2     0.900000E-01   1.00800           0
     17026 MEMB     129      POPC     H6S      HAL2     0.900000E-01   1.00800           0
     17027 MEMB     129      POPC     C27      CTL2    -0.180000       12.0110           0
     17028 MEMB     129      POPC     H7R      HAL2     0.900000E-01   1.00800           0
     17029 MEMB     129      POPC     H7S      HAL2     0.900000E-01   1.00800           0
     17030 MEMB     129      POPC     C28      CTL2    -0.180000       12.0110           0
     17031 MEMB     129      POPC     H8R      HAL2     0.900000E-01   1.00800           0
     17032 MEMB     129      POPC     H8S      HAL2     0.900000E-01   1.00800           0
     17033 MEMB     129      POPC     C29      CEL1    -0.150000       12.0110           0
     17034 MEMB     129      POPC     H91      HEL1     0.150000       1.00800           0
     17035 MEMB     129      POPC     C210     CEL1    -0.150000       12.0110           0
     17036 MEMB     129      POPC     H101     HEL1     0.150000       1.00800           0
     17037 MEMB     129      POPC     C211     CTL2    -0.180000       12.0110           0
     17038 MEMB     129      POPC     H11R     HAL2     0.900000E-01   1.00800           0
     17039 MEMB     129      POPC     H11S     HAL2     0.900000E-01   1.00800           0
     17040 MEMB     129      POPC     C212     CTL2    -0.180000       12.0110           0
     17041 MEMB     129      POPC     H12R     HAL2     0.900000E-01   1.00800           0
     17042 MEMB     129      POPC     H12S     HAL2     0.900000E-01   1.00800           0
     17043 MEMB     129      POPC     C213     CTL2    -0.180000       12.0110           0
     17044 MEMB     129      POPC     H13R     HAL2     0.900000E-01   1.00800           0
     17045 MEMB     129      POPC     H13S     HAL2     0.900000E-01   1.00800           0
     17046 MEMB     129      POPC     C214     CTL2    -0.180000       12.0110           0
     17047 MEMB     129      POPC     H14R     HAL2     0.900000E-01   1.00800           0
     17048 MEMB     129      POPC     H14S     HAL2     0.900000E-01   1.00800           0
     17049 MEMB     129      POPC     C215     CTL2    -0.180000       12.0110           0
     17050 MEMB     129      POPC     H15R     HAL2     0.900000E-01   1.00800           0
     17051 MEMB     129      POPC     H15S     HAL2     0.900000E-01   1.00800           0
     17052 MEMB     129      POPC     C216     CTL2    -0.180000       12.0110           0
     17053 MEMB     129      POPC     H16R     HAL2     0.900000E-01   1.00800           0
     17054 MEMB     129      POPC     H16S     HAL2     0.900000E-01   1.00800           0
     17055 MEMB     129      POPC     C217     CTL2    -0.180000       12.0110           0
     17056 MEMB     129      POPC     H17R     HAL2     0.900000E-01   1.00800           0
     17057 MEMB     129      POPC     H17S     HAL2     0.900000E-01   1.00800           0
     17058 MEMB     129      POPC     C218     CTL3    -0.270000       12.0110           0
     17059 MEMB     129      POPC     H18R     HAL3     0.900000E-01   1.00800           0
     17060 MEMB     129      POPC     H18S     HAL3     0.900000E-01   1.00800           0
     17061 MEMB     129      POPC     H18T     HAL3     0.900000E-01   1.00800           0
     17062 MEMB     129      POPC     C33      CTL2    -0.180000       12.0110           0
     17063 MEMB     129      POPC     H3X      HAL2     0.900000E-01   1.00800           0
     17064 MEMB     129      POPC     H3Y      HAL2     0.900000E-01   1.00800           0
     17065 MEMB     129      POPC     C34      CTL2    -0.180000       12.0110           0
     17066 MEMB     129      POPC     H4X      HAL2     0.900000E-01   1.00800           0
     17067 MEMB     129      POPC     H4Y      HAL2     0.900000E-01   1.00800           0
     17068 MEMB     129      POPC     C35      CTL2    -0.180000       12.0110           0
     17069 MEMB     129      POPC     H5X      HAL2     0.900000E-01   1.00800           0
     17070 MEMB     129      POPC     H5Y      HAL2     0.900000E-01   1.00800           0
     17071 MEMB     129      POPC     C36      CTL2    -0.180000       12.0110           0
     17072 MEMB     129      POPC     H6X      HAL2     0.900000E-01   1.00800           0
     17073 MEMB     129      POPC     H6Y      HAL2     0.900000E-01   1.00800           0
     17074 MEMB     129      POPC     C37      CTL2    -0.180000       12.0110           0
     17075 MEMB     129      POPC     H7X      HAL2     0.900000E-01   1.00800           0
     17076 MEMB     129      POPC     H7Y      HAL2     0.900000E-01   1.00800           0
     17077 MEMB     129      POPC     C38      CTL2    -0.180000       12.0110           0
     17078 MEMB     129      POPC     H8X      HAL2     0.900000E-01   1.00800           0
     17079 MEMB     129      POPC     H8Y      HAL2     0.900000E-01   1.00800           0
     17080 MEMB     129      POPC     C39      CTL2    -0.180000       12.0110           0
     17081 MEMB     129      POPC     H9X      HAL2     0.900000E-01   1.00800           0
     17082 MEMB     129      POPC     H9Y      HAL2     0.900000E-01   1.00800           0
     17083 MEMB     129      POPC     C310     CTL2    -0.180000       12.0110           0
     17084 MEMB     129      POPC     H10X     HAL2     0.900000E-01   1.00800           0
     17085 MEMB     129      POPC     H10Y     HAL2     0.900000E-01   1.00800           0
     17086 MEMB     129      POPC     C311     CTL2    -0.180000       12.0110           0
     17087 MEMB     129      POPC     H11X     HAL2     0.900000E-01   1.00800           0
     17088 MEMB     129      POPC     H11Y     HAL2     0.900000E-01   1.00800           0
     17089 MEMB     129      POPC     C312     CTL2    -0.180000       12.0110           0
     17090 MEMB     129      POPC     H12X     HAL2     0.900000E-01   1.00800           0
     17091 MEMB     129      POPC     H12Y     HAL2     0.900000E-01   1.00800           0
     17092 MEMB     129      POPC     C313     CTL2    -0.180000       12.0110           0
     17093 MEMB     129      POPC     H13X     HAL2     0.900000E-01   1.00800           0
     17094 MEMB     129      POPC     H13Y     HAL2     0.900000E-01   1.00800           0
     17095 MEMB     129      POPC     C314     CTL2    -0.180000       12.0110           0
     17096 MEMB     129      POPC     H14X     HAL2     0.900000E-01   1.00800           0
     17097 MEMB     129      POPC     H14Y     HAL2     0.900000E-01   1.00800           0
     17098 MEMB     129      POPC     C315     CTL2    -0.180000       12.0110           0
     17099 MEMB     129      POPC     H15X     HAL2     0.900000E-01   1.00800           0
     17100 MEMB     129      POPC     H15Y     HAL2     0.900000E-01   1.00800           0
     17101 MEMB     129      POPC     C316     CTL3    -0.270000       12.0110           0
     17102 MEMB     129      POPC     H16X     HAL3     0.900000E-01   1.00800           0
     17103 MEMB     129      POPC     H16Y     HAL3     0.900000E-01   1.00800           0
     17104 MEMB     129      POPC     H16Z     HAL3     0.900000E-01   1.00800           0
     17105 MEMB     130      POPC     N        NTL     -0.600000       14.0070           0
     17106 MEMB     130      POPC     C12      CTL2    -0.100000       12.0110           0
     17107 MEMB     130      POPC     H12A     HL       0.250000       1.00800           0
     17108 MEMB     130      POPC     H12B     HL       0.250000       1.00800           0
     17109 MEMB     130      POPC     C13      CTL5    -0.350000       12.0110           0
     17110 MEMB     130      POPC     H13A     HL       0.250000       1.00800           0
     17111 MEMB     130      POPC     H13B     HL       0.250000       1.00800           0
     17112 MEMB     130      POPC     H13C     HL       0.250000       1.00800           0
     17113 MEMB     130      POPC     C14      CTL5    -0.350000       12.0110           0
     17114 MEMB     130      POPC     H14A     HL       0.250000       1.00800           0
     17115 MEMB     130      POPC     H14B     HL       0.250000       1.00800           0
     17116 MEMB     130      POPC     H14C     HL       0.250000       1.00800           0
     17117 MEMB     130      POPC     C15      CTL5    -0.350000       12.0110           0
     17118 MEMB     130      POPC     H15A     HL       0.250000       1.00800           0
     17119 MEMB     130      POPC     H15B     HL       0.250000       1.00800           0
     17120 MEMB     130      POPC     H15C     HL       0.250000       1.00800           0
     17121 MEMB     130      POPC     C11      CTL2    -0.800000E-01   12.0110           0
     17122 MEMB     130      POPC     H11A     HAL2     0.900000E-01   1.00800           0
     17123 MEMB     130      POPC     H11B     HAL2     0.900000E-01   1.00800           0
     17124 MEMB     130      POPC     P        PL        1.50000       30.9740           0
     17125 MEMB     130      POPC     O13      O2L     -0.780000       15.9994           0
     17126 MEMB     130      POPC     O14      O2L     -0.780000       15.9994           0
     17127 MEMB     130      POPC     O12      OSLP    -0.570000       15.9994           0
     17128 MEMB     130      POPC     O11      OSLP    -0.570000       15.9994           0
     17129 MEMB     130      POPC     C1       CTL2    -0.800000E-01   12.0110           0
     17130 MEMB     130      POPC     HA       HAL2     0.900000E-01   1.00800           0
     17131 MEMB     130      POPC     HB       HAL2     0.900000E-01   1.00800           0
     17132 MEMB     130      POPC     C2       CTL1     0.170000       12.0110           0
     17133 MEMB     130      POPC     HS       HAL1     0.900000E-01   1.00800           0
     17134 MEMB     130      POPC     O21      OSL     -0.490000       15.9994           0
     17135 MEMB     130      POPC     C21      CL       0.900000       12.0110           0
     17136 MEMB     130      POPC     O22      OBL     -0.630000       15.9994           0
     17137 MEMB     130      POPC     C22      CTL2    -0.220000       12.0110           0
     17138 MEMB     130      POPC     H2R      HAL2     0.900000E-01   1.00800           0
     17139 MEMB     130      POPC     H2S      HAL2     0.900000E-01   1.00800           0
     17140 MEMB     130      POPC     C3       CTL2     0.800000E-01   12.0110           0
     17141 MEMB     130      POPC     HX       HAL2     0.900000E-01   1.00800           0
     17142 MEMB     130      POPC     HY       HAL2     0.900000E-01   1.00800           0
     17143 MEMB     130      POPC     O31      OSL     -0.490000       15.9994           0
     17144 MEMB     130      POPC     C31      CL       0.900000       12.0110           0
     17145 MEMB     130      POPC     O32      OBL     -0.630000       15.9994           0
     17146 MEMB     130      POPC     C32      CTL2    -0.220000       12.0110           0
     17147 MEMB     130      POPC     H2X      HAL2     0.900000E-01   1.00800           0
     17148 MEMB     130      POPC     H2Y      HAL2     0.900000E-01   1.00800           0
     17149 MEMB     130      POPC     C23      CTL2    -0.180000       12.0110           0
     17150 MEMB     130      POPC     H3R      HAL2     0.900000E-01   1.00800           0
     17151 MEMB     130      POPC     H3S      HAL2     0.900000E-01   1.00800           0
     17152 MEMB     130      POPC     C24      CTL2    -0.180000       12.0110           0
     17153 MEMB     130      POPC     H4R      HAL2     0.900000E-01   1.00800           0
     17154 MEMB     130      POPC     H4S      HAL2     0.900000E-01   1.00800           0
     17155 MEMB     130      POPC     C25      CTL2    -0.180000       12.0110           0
     17156 MEMB     130      POPC     H5R      HAL2     0.900000E-01   1.00800           0
     17157 MEMB     130      POPC     H5S      HAL2     0.900000E-01   1.00800           0
     17158 MEMB     130      POPC     C26      CTL2    -0.180000       12.0110           0
     17159 MEMB     130      POPC     H6R      HAL2     0.900000E-01   1.00800           0
     17160 MEMB     130      POPC     H6S      HAL2     0.900000E-01   1.00800           0
     17161 MEMB     130      POPC     C27      CTL2    -0.180000       12.0110           0
     17162 MEMB     130      POPC     H7R      HAL2     0.900000E-01   1.00800           0
     17163 MEMB     130      POPC     H7S      HAL2     0.900000E-01   1.00800           0
     17164 MEMB     130      POPC     C28      CTL2    -0.180000       12.0110           0
     17165 MEMB     130      POPC     H8R      HAL2     0.900000E-01   1.00800           0
     17166 MEMB     130      POPC     H8S      HAL2     0.900000E-01   1.00800           0
     17167 MEMB     130      POPC     C29      CEL1    -0.150000       12.0110           0
     17168 MEMB     130      POPC     H91      HEL1     0.150000       1.00800           0
     17169 MEMB     130      POPC     C210     CEL1    -0.150000       12.0110           0
     17170 MEMB     130      POPC     H101     HEL1     0.150000       1.00800           0
     17171 MEMB     130      POPC     C211     CTL2    -0.180000       12.0110           0
     17172 MEMB     130      POPC     H11R     HAL2     0.900000E-01   1.00800           0
     17173 MEMB     130      POPC     H11S     HAL2     0.900000E-01   1.00800           0
     17174 MEMB     130      POPC     C212     CTL2    -0.180000       12.0110           0
     17175 MEMB     130      POPC     H12R     HAL2     0.900000E-01   1.00800           0
     17176 MEMB     130      POPC     H12S     HAL2     0.900000E-01   1.00800           0
     17177 MEMB     130      POPC     C213     CTL2    -0.180000       12.0110           0
     17178 MEMB     130      POPC     H13R     HAL2     0.900000E-01   1.00800           0
     17179 MEMB     130      POPC     H13S     HAL2     0.900000E-01   1.00800           0
     17180 MEMB     130      POPC     C214     CTL2    -0.180000       12.0110           0
     17181 MEMB     130      POPC     H14R     HAL2     0.900000E-01   1.00800           0
     17182 MEMB     130      POPC     H14S     HAL2     0.900000E-01   1.00800           0
     17183 MEMB     130      POPC     C215     CTL2    -0.180000       12.0110           0
     17184 MEMB     130      POPC     H15R     HAL2     0.900000E-01   1.00800           0
     17185 MEMB     130      POPC     H15S     HAL2     0.900000E-01   1.00800           0
     17186 MEMB     130      POPC     C216     CTL2    -0.180000       12.0110           0
     17187 MEMB     130      POPC     H16R     HAL2     0.900000E-01   1.00800           0
     17188 MEMB     130      POPC     H16S     HAL2     0.900000E-01   1.00800           0
     17189 MEMB     130      POPC     C217     CTL2    -0.180000       12.0110           0
     17190 MEMB     130      POPC     H17R     HAL2     0.900000E-01   1.00800           0
     17191 MEMB     130      POPC     H17S     HAL2     0.900000E-01   1.00800           0
     17192 MEMB     130      POPC     C218     CTL3    -0.270000       12.0110           0
     17193 MEMB     130      POPC     H18R     HAL3     0.900000E-01   1.00800           0
     17194 MEMB     130      POPC     H18S     HAL3     0.900000E-01   1.00800           0
     17195 MEMB     130      POPC     H18T     HAL3     0.900000E-01   1.00800           0
     17196 MEMB     130      POPC     C33      CTL2    -0.180000       12.0110           0
     17197 MEMB     130      POPC     H3X      HAL2     0.900000E-01   1.00800           0
     17198 MEMB     130      POPC     H3Y      HAL2     0.900000E-01   1.00800           0
     17199 MEMB     130      POPC     C34      CTL2    -0.180000       12.0110           0
     17200 MEMB     130      POPC     H4X      HAL2     0.900000E-01   1.00800           0
     17201 MEMB     130      POPC     H4Y      HAL2     0.900000E-01   1.00800           0
     17202 MEMB     130      POPC     C35      CTL2    -0.180000       12.0110           0
     17203 MEMB     130      POPC     H5X      HAL2     0.900000E-01   1.00800           0
     17204 MEMB     130      POPC     H5Y      HAL2     0.900000E-01   1.00800           0
     17205 MEMB     130      POPC     C36      CTL2    -0.180000       12.0110           0
     17206 MEMB     130      POPC     H6X      HAL2     0.900000E-01   1.00800           0
     17207 MEMB     130      POPC     H6Y      HAL2     0.900000E-01   1.00800           0
     17208 MEMB     130      POPC     C37      CTL2    -0.180000       12.0110           0
     17209 MEMB     130      POPC     H7X      HAL2     0.900000E-01   1.00800           0
     17210 MEMB     130      POPC     H7Y      HAL2     0.900000E-01   1.00800           0
     17211 MEMB     130      POPC     C38      CTL2    -0.180000       12.0110           0
     17212 MEMB     130      POPC     H8X      HAL2     0.900000E-01   1.00800           0
     17213 MEMB     130      POPC     H8Y      HAL2     0.900000E-01   1.00800           0
     17214 MEMB     130      POPC     C39      CTL2    -0.180000       12.0110           0
     17215 MEMB     130      POPC     H9X      HAL2     0.900000E-01   1.00800           0
     17216 MEMB     130      POPC     H9Y      HAL2     0.900000E-01   1.00800           0
     17217 MEMB     130      POPC     C310     CTL2    -0.180000       12.0110           0
     17218 MEMB     130      POPC     H10X     HAL2     0.900000E-01   1.00800           0
     17219 MEMB     130      POPC     H10Y     HAL2     0.900000E-01   1.00800           0
     17220 MEMB     130      POPC     C311     CTL2    -0.180000       12.0110           0
     17221 MEMB     130      POPC     H11X     HAL2     0.900000E-01   1.00800           0
     17222 MEMB     130      POPC     H11Y     HAL2     0.900000E-01   1.00800           0
     17223 MEMB     130      POPC     C312     CTL2    -0.180000       12.0110           0
     17224 MEMB     130      POPC     H12X     HAL2     0.900000E-01   1.00800           0
     17225 MEMB     130      POPC     H12Y     HAL2     0.900000E-01   1.00800           0
     17226 MEMB     130      POPC     C313     CTL2    -0.180000       12.0110           0
     17227 MEMB     130      POPC     H13X     HAL2     0.900000E-01   1.00800           0
     17228 MEMB     130      POPC     H13Y     HAL2     0.900000E-01   1.00800           0
     17229 MEMB     130      POPC     C314     CTL2    -0.180000       12.0110           0
     17230 MEMB     130      POPC     H14X     HAL2     0.900000E-01   1.00800           0
     17231 MEMB     130      POPC     H14Y     HAL2     0.900000E-01   1.00800           0
     17232 MEMB     130      POPC     C315     CTL2    -0.180000       12.0110           0
     17233 MEMB     130      POPC     H15X     HAL2     0.900000E-01   1.00800           0
     17234 MEMB     130      POPC     H15Y     HAL2     0.900000E-01   1.00800           0
     17235 MEMB     130      POPC     C316     CTL3    -0.270000       12.0110           0
     17236 MEMB     130      POPC     H16X     HAL3     0.900000E-01   1.00800           0
     17237 MEMB     130      POPC     H16Y     HAL3     0.900000E-01   1.00800           0
     17238 MEMB     130      POPC     H16Z     HAL3     0.900000E-01   1.00800           0

     17108 !NBOND: bonds
         1         5         1         9         1        13         5         6
         5         7         5         8         9        10         9        11
         9        12        13        14        13        15        13        16
         1         2         2         3         2         4         2        17
        17        18        17        19        17        23        24        25
        23        20        20        24        20        21        20        22
        25        26        25        27        25        28        28        29
        28        36        28        30        36        37        36        38
        36        39        30        31        31        33        31        32
        33        34        33        35        33        45        45        46
        45        47        45        48        48        49        48        50
        48        51        51        52        51        53        51        54
        54        55        54        56        54        57        57        58
        57        59        57        60        60        61        60        62
        60        63        63        64        63        65        65        66
        65        67        67        68        67        69        67        70
        70        71        70        72        70        73        73        74
        73        75        73        76        76        77        76        78
        76        79        79        80        79        81        79        82
        82        83        82        84        82        85        85        86
        85        87        85        88        88        89        88        90
        88        91        39        40        40        42        40        41
        42        43        42        44        42        92        92        93
        92        94        92        95        95        96        95        97
        95        98        98        99        98       100        98       101
       101       102       101       103       101       104       104       105
       104       106       104       107       107       108       107       109
       107       110       110       111       110       112       110       113
       113       114       113       115       113       116       116       117
       116       118       116       119       119       120       119       121
       119       122       122       123       122       124       122       125
       125       126       125       127       125       128       128       129
       128       130       128       131       131       132       131       133
       131       134       135       136       135       137       135       138
       135       139       143       141       141       139       141       142
       139       140       139       144       152       151       144       145
       144       146       144       150       150       147       147       151
       147       148       147       149       152       153       152       154
       152       155       155       156       155       163       155       157
       163       164       163       165       163       166       157       158
       158       160       158       159       160       161       160       162
       160       172       172       173       172       174       172       175
       175       176       175       177       175       178       178       179
       178       180       178       181       181       182       181       183
       181       184       184       185       184       186       184       187
       187       188       187       189       187       190       190       191
       190       192       192       193       192       194       194       195
       194       196       194       197       197       198       197       199
       197       200       200       201       200       202       200       203
       203       204       203       205       203       206       206       207
       206       208       206       209       209       210       209       211
       209       212       212       213       212       214       212       215
       215       216       215       217       215       218       166       167
       167       169       167       168       169       170       169       171
       169       219       219       220       219       221       219       222
       222       223       222       224       222       225       225       226
       225       227       225       228       228       229       228       230
       228       231       231       232       231       233       231       234
       234       235       234       236       234       237       237       238
       237       239       237       240       240       241       240       242
       240       243       243       244       243       245       243       246
       246       247       246       248       246       249       249       250
       249       251       249       252       252       253       252       254
       252       255       255       256       255       257       255       258
       258       259       258       260       258       261       262       263
       262       264       262       265       262       266       270       268
       268       266       268       269       266       267       266       271
       279       278       271       272       271       273       271       277
       277       274       274       278       274       275       274       276
       279       280       279       281       279       282       282       283
       282       290       282       284       290       291       290       292
       290       293       284       285       285       287       285       286
       287       288       287       289       287       299       299       300
       299       301       299       302       302       303       302       304
       302       305       305       306       305       307       305       308
       308       309       308       310       308       311       311       312
       311       313       311       314       314       315       314       316
       314       317       317       318       317       319       319       320
       319       321       321       322       321       323       321       324
       324       325       324       326       324       327       327       328
       327       329       327       330       330       331       330       332
       330       333       333       334       333       335       333       336
       336       337       336       338       336       339       339       340
       339       341       339       342       342       343       342       344
       342       345       293       294       294       296       294       295
       296       297       296       298       296       346       346       347
       346       348       346       349       349       350       349       351
       349       352       352       353       352       354       352       355
       355       356       355       357       355       358       358       359
       358       360       358       361       361       362       361       363
       361       364       364       365       364       366       364       367
       367       368       367       369       367       370       370       371
       370       372       370       373       373       374       373       375
       373       376       376       377       376       378       376       379
       379       380       379       381       379       382       382       383
       382       384       382       385       385       386       385       387
       385       388       389       393       389       397       389       401
       393       394       393       395       393       396       397       398
       397       399       397       400       401       402       401       403
       401       404       389       390       390       391       390       392
       390       405       405       406       405       407       405       411
       412       413       411       408       408       412       408       409
       408       410       413       414       413       415       413       416
       416       417       416       424       416       418       424       425
       424       426       424       427       418       419       419       421
       419       420       421       422       421       423       421       433
       433       434       433       435       433       436       436       437
       436       438       436       439       439       440       439       441
       439       442       442       443       442       444       442       445
       445       446       445       447       445       448       448       449
       448       450       448       451       451       452       451       453
       453       454       453       455       455       456       455       457
       455       458       458       459       458       460       458       461
       461       462       461       463       461       464       464       465
       464       466       464       467       467       468       467       469
       467       470       470       471       470       472       470       473
       473       474       473       475       473       476       476       477
       476       478       476       479       427       428       428       430
       428       429       430       431       430       432       430       480
       480       481       480       482       480       483       483       484
       483       485       483       486       486       487       486       488
       486       489       489       490       489       491       489       492
       492       493       492       494       492       495       495       496
       495       497       495       498       498       499       498       500
       498       501       501       502       501       503       501       504
       504       505       504       506       504       507       507       508
       507       509       507       510       510       511       510       512
       510       513       513       514       513       515       513       516
       516       517       516       518       516       519       519       520
       519       521       519       522       523       527       523       531
       523       535       527       528       527       529       527       530
       531       532       531       533       531       534       535       536
       535       537       535       538       523       524       524       525
       524       526       524       539       539       540       539       541
       539       545       546       547       545       542       542       546
       542       543       542       544       547       548       547       549
       547       550       550       551       550       558       550       552
       558       559       558       560       558       561       552       553
       553       555       553       554       555       556       555       557
       555       567       567       568       567       569       567       570
       570       571       570       572       570       573       573       574
       573       575       573       576       576       577       576       578
       576       579       579       580       579       581       579       582
       582       583       582       584       582       585       585       586
       585       587       587       588       587       589       589       590
       589       591       589       592       592       593       592       594
       592       595       595       596       595       597       595       598
       598       599       598       600       598       601       601       602
       601       603       601       604       604       605       604       606
       604       607       607       608       607       609       607       610
       610       611       610       612       610       613       561       562
       562       564       562       563       564       565       564       566
       564       614       614       615       614       616       614       617
       617       618       617       619       617       620       620       621
       620       622       620       623       623       624       623       625
       623       626       626       627       626       628       626       629
       629       630       629       631       629       632       632       633
       632       634       632       635       635       636       635       637
       635       638       638       639       638       640       638       641
       641       642       641       643       641       644       644       645
       644       646       644       647       647       648       647       649
       647       650       650       651       650       652       650       653
       653       654       653       655       653       656       657       661
       657       665       657       669       661       662       661       663
       661       664       665       666       665       667       665       668
       669       670       669       671       669       672       657       658
       658       659       658       660       658       673       673       674
       673       675       673       679       680       681       679       676
       676       680       676       677       676       678       681       682
       681       683       681       684       684       685       684       692
       684       686       692       693       692       694       692       695
       686       687       687       689       687       688       689       690
       689       691       689       701       701       702       701       703
       701       704       704       705       704       706       704       707
       707       708       707       709       707       710       710       711
       710       712       710       713       713       714       713       715
       713       716       716       717       716       718       716       719
       719       720       719       721       721       722       721       723
       723       724       723       725       723       726       726       727
       726       728       726       729       729       730       729       731
       729       732       732       733       732       734       732       735
       735       736       735       737       735       738       738       739
       738       740       738       741       741       742       741       743
       741       744       744       745       744       746       744       747
       695       696       696       698       696       697       698       699
       698       700       698       748       748       749       748       750
       748       751       751       752       751       753       751       754
       754       755       754       756       754       757       757       758
       757       759       757       760       760       761       760       762
       760       763       763       764       763       765       763       766
       766       767       766       768       766       769       769       770
       769       771       769       772       772       773       772       774
       772       775       775       776       775       777       775       778
       778       779       778       780       778       781       781       782
       781       783       781       784       784       785       784       786
       784       787       787       788       787       789       787       790
       791       792       791       793       791       794       791       795
       799       797       797       795       797       798       795       796
       795       800       808       807       800       801       800       802
       800       806       806       803       803       807       803       804
       803       805       808       809       808       810       808       811
       811       812       811       819       811       813       819       820
       819       821       819       822       813       814       814       816
       814       815       816       817       816       818       816       828
       828       829       828       830       828       831       831       832
       831       833       831       834       834       835       834       836
       834       837       837       838       837       839       837       840
       840       841       840       842       840       843       843       844
       843       845       843       846       846       847       846       848
       848       849       848       850       850       851       850       852
       850       853       853       854       853       855       853       856
       856       857       856       858       856       859       859       860
       859       861       859       862       862       863       862       864
       862       865       865       866       865       867       865       868
       868       869       868       870       868       871       871       872
       871       873       871       874       822       823       823       825
       823       824       825       826       825       827       825       875
       875       876       875       877       875       878       878       879
       878       880       878       881       881       882       881       883
       881       884       884       885       884       886       884       887
       887       888       887       889       887       890       890       891
       890       892       890       893       893       894       893       895
       893       896       896       897       896       898       896       899
       899       900       899       901       899       902       902       903
       902       904       902       905       905       906       905       907
       905       908       908       909       908       910       908       911
       911       912       911       913       911       914       914       915
       914       916       914       917       918       922       918       926
       918       930       922       923       922       924       922       925
       926       927       926       928       926       929       930       931
       930       932       930       933       918       919       919       920
       919       921       919       934       934       935       934       936
       934       940       941       942       940       937       937       941
       937       938       937       939       942       943       942       944
       942       945       945       946       945       953       945       947
       953       954       953       955       953       956       947       948
       948       950       948       949       950       951       950       952
       950       962       962       963       962       964       962       965
       965       966       965       967       965       968       968       969
       968       970       968       971       971       972       971       973
       971       974       974       975       974       976       974       977
       977       978       977       979       977       980       980       981
       980       982       982       983       982       984       984       985
       984       986       984       987       987       988       987       989
       987       990       990       991       990       992       990       993
       993       994       993       995       993       996       996       997
       996       998       996       999       999      1000       999      1001
       999      1002      1002      1003      1002      1004      1002      1005
      1005      1006      1005      1007      1005      1008       956       957
       957       959       957       958       959       960       959       961
       959      1009      1009      1010      1009      1011      1009      1012
      1012      1013      1012      1014      1012      1015      1015      1016
      1015      1017      1015      1018      1018      1019      1018      1020
      1018      1021      1021      1022      1021      1023      1021      1024
      1024      1025      1024      1026      1024      1027      1027      1028
      1027      1029      1027      1030      1030      1031      1030      1032
      1030      1033      1033      1034      1033      1035      1033      1036
      1036      1037      1036      1038      1036      1039      1039      1040
      1039      1041      1039      1042      1042      1043      1042      1044
      1042      1045      1045      1046      1045      1047      1045      1048
      1048      1049      1048      1050      1048      1051      1052      1056
      1052      1060      1052      1064      1056      1057      1056      1058
      1056      1059      1060      1061      1060      1062      1060      1063
      1064      1065      1064      1066      1064      1067      1052      1053
      1053      1054      1053      1055      1053      1068      1068      1069
      1068      1070      1068      1074      1075      1076      1074      1071
      1071      1075      1071      1072      1071      1073      1076      1077
      1076      1078      1076      1079      1079      1080      1079      1087
      1079      1081      1087      1088      1087      1089      1087      1090
      1081      1082      1082      1084      1082      1083      1084      1085
      1084      1086      1084      1096      1096      1097      1096      1098
      1096      1099      1099      1100      1099      1101      1099      1102
      1102      1103      1102      1104      1102      1105      1105      1106
      1105      1107      1105      1108      1108      1109      1108      1110
      1108      1111      1111      1112      1111      1113      1111      1114
      1114      1115      1114      1116      1116      1117      1116      1118
      1118      1119      1118      1120      1118      1121      1121      1122
      1121      1123      1121      1124      1124      1125      1124      1126
      1124      1127      1127      1128      1127      1129      1127      1130
      1130      1131      1130      1132      1130      1133      1133      1134
      1133      1135      1133      1136      1136      1137      1136      1138
      1136      1139      1139      1140      1139      1141      1139      1142
      1090      1091      1091      1093      1091      1092      1093      1094
      1093      1095      1093      1143      1143      1144      1143      1145
      1143      1146      1146      1147      1146      1148      1146      1149
      1149      1150      1149      1151      1149      1152      1152      1153
      1152      1154      1152      1155      1155      1156      1155      1157
      1155      1158      1158      1159      1158      1160      1158      1161
      1161      1162      1161      1163      1161      1164      1164      1165
      1164      1166      1164      1167      1167      1168      1167      1169
      1167      1170      1170      1171      1170      1172      1170      1173
      1173      1174      1173      1175      1173      1176      1176      1177
      1176      1178      1176      1179      1179      1180      1179      1181
      1179      1182      1182      1183      1182      1184      1182      1185
      1186      1190      1186      1194      1186      1198      1190      1191
      1190      1192      1190      1193      1194      1195      1194      1196
      1194      1197      1198      1199      1198      1200      1198      1201
      1186      1187      1187      1188      1187      1189      1187      1202
      1202      1203      1202      1204      1202      1208      1209      1210
      1208      1205      1205      1209      1205      1206      1205      1207
      1210      1211      1210      1212      1210      1213      1213      1214
      1213      1221      1213      1215      1221      1222      1221      1223
      1221      1224      1215      1216      1216      1218      1216      1217
      1218      1219      1218      1220      1218      1230      1230      1231
      1230      1232      1230      1233      1233      1234      1233      1235
      1233      1236      1236      1237      1236      1238      1236      1239
      1239      1240      1239      1241      1239      1242      1242      1243
      1242      1244      1242      1245      1245      1246      1245      1247
      1245      1248      1248      1249      1248      1250      1250      1251
      1250      1252      1252      1253      1252      1254      1252      1255
      1255      1256      1255      1257      1255      1258      1258      1259
      1258      1260      1258      1261      1261      1262      1261      1263
      1261      1264      1264      1265      1264      1266      1264      1267
      1267      1268      1267      1269      1267      1270      1270      1271
      1270      1272      1270      1273      1273      1274      1273      1275
      1273      1276      1224      1225      1225      1227      1225      1226
      1227      1228      1227      1229      1227      1277      1277      1278
      1277      1279      1277      1280      1280      1281      1280      1282
      1280      1283      1283      1284      1283      1285      1283      1286
      1286      1287      1286      1288      1286      1289      1289      1290
      1289      1291      1289      1292      1292      1293      1292      1294
      1292      1295      1295      1296      1295      1297      1295      1298
      1298      1299      1298      1300      1298      1301      1301      1302
      1301      1303      1301      1304      1304      1305      1304      1306
      1304      1307      1307      1308      1307      1309      1307      1310
      1310      1311      1310      1312      1310      1313      1313      1314
      1313      1315      1313      1316      1316      1317      1316      1318
      1316      1319      1320      1324      1320      1328      1320      1332
      1324      1325      1324      1326      1324      1327      1328      1329
      1328      1330      1328      1331      1332      1333      1332      1334
      1332      1335      1320      1321      1321      1322      1321      1323
      1321      1336      1336      1337      1336      1338      1336      1342
      1343      1344      1342      1339      1339      1343      1339      1340
      1339      1341      1344      1345      1344      1346      1344      1347
      1347      1348      1347      1355      1347      1349      1355      1356
      1355      1357      1355      1358      1349      1350      1350      1352
      1350      1351      1352      1353      1352      1354      1352      1364
      1364      1365      1364      1366      1364      1367      1367      1368
      1367      1369      1367      1370      1370      1371      1370      1372
      1370      1373      1373      1374      1373      1375      1373      1376
      1376      1377      1376      1378      1376      1379      1379      1380
      1379      1381      1379      1382      1382      1383      1382      1384
      1384      1385      1384      1386      1386      1387      1386      1388
      1386      1389      1389      1390      1389      1391      1389      1392
      1392      1393      1392      1394      1392      1395      1395      1396
      1395      1397      1395      1398      1398      1399      1398      1400
      1398      1401      1401      1402      1401      1403      1401      1404
      1404      1405      1404      1406      1404      1407      1407      1408
      1407      1409      1407      1410      1358      1359      1359      1361
      1359      1360      1361      1362      1361      1363      1361      1411
      1411      1412      1411      1413      1411      1414      1414      1415
      1414      1416      1414      1417      1417      1418      1417      1419
      1417      1420      1420      1421      1420      1422      1420      1423
      1423      1424      1423      1425      1423      1426      1426      1427
      1426      1428      1426      1429      1429      1430      1429      1431
      1429      1432      1432      1433      1432      1434      1432      1435
      1435      1436      1435      1437      1435      1438      1438      1439
      1438      1440      1438      1441      1441      1442      1441      1443
      1441      1444      1444      1445      1444      1446      1444      1447
      1447      1448      1447      1449      1447      1450      1450      1451
      1450      1452      1450      1453      1454      1458      1454      1462
      1454      1466      1458      1459      1458      1460      1458      1461
      1462      1463      1462      1464      1462      1465      1466      1467
      1466      1468      1466      1469      1454      1455      1455      1456
      1455      1457      1455      1470      1470      1471      1470      1472
      1470      1476      1477      1478      1476      1473      1473      1477
      1473      1474      1473      1475      1478      1479      1478      1480
      1478      1481      1481      1482      1481      1489      1481      1483
      1489      1490      1489      1491      1489      1492      1483      1484
      1484      1486      1484      1485      1486      1487      1486      1488
      1486      1498      1498      1499      1498      1500      1498      1501
      1501      1502      1501      1503      1501      1504      1504      1505
      1504      1506      1504      1507      1507      1508      1507      1509
      1507      1510      1510      1511      1510      1512      1510      1513
      1513      1514      1513      1515      1513      1516      1516      1517
      1516      1518      1518      1519      1518      1520      1520      1521
      1520      1522      1520      1523      1523      1524      1523      1525
      1523      1526      1526      1527      1526      1528      1526      1529
      1529      1530      1529      1531      1529      1532      1532      1533
      1532      1534      1532      1535      1535      1536      1535      1537
      1535      1538      1538      1539      1538      1540      1538      1541
      1541      1542      1541      1543      1541      1544      1492      1493
      1493      1495      1493      1494      1495      1496      1495      1497
      1495      1545      1545      1546      1545      1547      1545      1548
      1548      1549      1548      1550      1548      1551      1551      1552
      1551      1553      1551      1554      1554      1555      1554      1556
      1554      1557      1557      1558      1557      1559      1557      1560
      1560      1561      1560      1562      1560      1563      1563      1564
      1563      1565      1563      1566      1566      1567      1566      1568
      1566      1569      1569      1570      1569      1571      1569      1572
      1572      1573      1572      1574      1572      1575      1575      1576
      1575      1577      1575      1578      1578      1579      1578      1580
      1578      1581      1581      1582      1581      1583      1581      1584
      1584      1585      1584      1586      1584      1587      1588      1589
      1588      1590      1588      1591      1588      1592      1596      1594
      1594      1592      1594      1595      1592      1593      1592      1597
      1605      1604      1597      1598      1597      1599      1597      1603
      1603      1600      1600      1604      1600      1601      1600      1602
      1605      1606      1605      1607      1605      1608      1608      1609
      1608      1616      1608      1610      1616      1617      1616      1618
      1616      1619      1610      1611      1611      1613      1611      1612
      1613      1614      1613      1615      1613      1625      1625      1626
      1625      1627      1625      1628      1628      1629      1628      1630
      1628      1631      1631      1632      1631      1633      1631      1634
      1634      1635      1634      1636      1634      1637      1637      1638
      1637      1639      1637      1640      1640      1641      1640      1642
      1640      1643      1643      1644      1643      1645      1645      1646
      1645      1647      1647      1648      1647      1649      1647      1650
      1650      1651      1650      1652      1650      1653      1653      1654
      1653      1655      1653      1656      1656      1657      1656      1658
      1656      1659      1659      1660      1659      1661      1659      1662
      1662      1663      1662      1664      1662      1665      1665      1666
      1665      1667      1665      1668      1668      1669      1668      1670
      1668      1671      1619      1620      1620      1622      1620      1621
      1622      1623      1622      1624      1622      1672      1672      1673
      1672      1674      1672      1675      1675      1676      1675      1677
      1675      1678      1678      1679      1678      1680      1678      1681
      1681      1682      1681      1683      1681      1684      1684      1685
      1684      1686      1684      1687      1687      1688      1687      1689
      1687      1690      1690      1691      1690      1692      1690      1693
      1693      1694      1693      1695      1693      1696      1696      1697
      1696      1698      1696      1699      1699      1700      1699      1701
      1699      1702      1702      1703      1702      1704      1702      1705
      1705      1706      1705      1707      1705      1708      1708      1709
      1708      1710      1708      1711      1711      1712      1711      1713
      1711      1714      1715      1719      1715      1723      1715      1727
      1719      1720      1719      1721      1719      1722      1723      1724
      1723      1725      1723      1726      1727      1728      1727      1729
      1727      1730      1715      1716      1716      1717      1716      1718
      1716      1731      1731      1732      1731      1733      1731      1737
      1738      1739      1737      1734      1734      1738      1734      1735
      1734      1736      1739      1740      1739      1741      1739      1742
      1742      1743      1742      1750      1742      1744      1750      1751
      1750      1752      1750      1753      1744      1745      1745      1747
      1745      1746      1747      1748      1747      1749      1747      1759
      1759      1760      1759      1761      1759      1762      1762      1763
      1762      1764      1762      1765      1765      1766      1765      1767
      1765      1768      1768      1769      1768      1770      1768      1771
      1771      1772      1771      1773      1771      1774      1774      1775
      1774      1776      1774      1777      1777      1778      1777      1779
      1779      1780      1779      1781      1781      1782      1781      1783
      1781      1784      1784      1785      1784      1786      1784      1787
      1787      1788      1787      1789      1787      1790      1790      1791
      1790      1792      1790      1793      1793      1794      1793      1795
      1793      1796      1796      1797      1796      1798      1796      1799
      1799      1800      1799      1801      1799      1802      1802      1803
      1802      1804      1802      1805      1753      1754      1754      1756
      1754      1755      1756      1757      1756      1758      1756      1806
      1806      1807      1806      1808      1806      1809      1809      1810
      1809      1811      1809      1812      1812      1813      1812      1814
      1812      1815      1815      1816      1815      1817      1815      1818
      1818      1819      1818      1820      1818      1821      1821      1822
      1821      1823      1821      1824      1824      1825      1824      1826
      1824      1827      1827      1828      1827      1829      1827      1830
      1830      1831      1830      1832      1830      1833      1833      1834
      1833      1835      1833      1836      1836      1837      1836      1838
      1836      1839      1839      1840      1839      1841      1839      1842
      1842      1843      1842      1844      1842      1845      1845      1846
      1845      1847      1845      1848      1849      1853      1849      1857
      1849      1861      1853      1854      1853      1855      1853      1856
      1857      1858      1857      1859      1857      1860      1861      1862
      1861      1863      1861      1864      1849      1850      1850      1851
      1850      1852      1850      1865      1865      1866      1865      1867
      1865      1871      1872      1873      1871      1868      1868      1872
      1868      1869      1868      1870      1873      1874      1873      1875
      1873      1876      1876      1877      1876      1884      1876      1878
      1884      1885      1884      1886      1884      1887      1878      1879
      1879      1881      1879      1880      1881      1882      1881      1883
      1881      1893      1893      1894      1893      1895      1893      1896
      1896      1897      1896      1898      1896      1899      1899      1900
      1899      1901      1899      1902      1902      1903      1902      1904
      1902      1905      1905      1906      1905      1907      1905      1908
      1908      1909      1908      1910      1908      1911      1911      1912
      1911      1913      1913      1914      1913      1915      1915      1916
      1915      1917      1915      1918      1918      1919      1918      1920
      1918      1921      1921      1922      1921      1923      1921      1924
      1924      1925      1924      1926      1924      1927      1927      1928
      1927      1929      1927      1930      1930      1931      1930      1932
      1930      1933      1933      1934      1933      1935      1933      1936
      1936      1937      1936      1938      1936      1939      1887      1888
      1888      1890      1888      1889      1890      1891      1890      1892
      1890      1940      1940      1941      1940      1942      1940      1943
      1943      1944      1943      1945      1943      1946      1946      1947
      1946      1948      1946      1949      1949      1950      1949      1951
      1949      1952      1952      1953      1952      1954      1952      1955
      1955      1956      1955      1957      1955      1958      1958      1959
      1958      1960      1958      1961      1961      1962      1961      1963
      1961      1964      1964      1965      1964      1966      1964      1967
      1967      1968      1967      1969      1967      1970      1970      1971
      1970      1972      1970      1973      1973      1974      1973      1975
      1973      1976      1976      1977      1976      1978      1976      1979
      1979      1980      1979      1981      1979      1982      1983      1987
      1983      1991      1983      1995      1987      1988      1987      1989
      1987      1990      1991      1992      1991      1993      1991      1994
      1995      1996      1995      1997      1995      1998      1983      1984
      1984      1985      1984      1986      1984      1999      1999      2000
      1999      2001      1999      2005      2006      2007      2005      2002
      2002      2006      2002      2003      2002      2004      2007      2008
      2007      2009      2007      2010      2010      2011      2010      2018
      2010      2012      2018      2019      2018      2020      2018      2021
      2012      2013      2013      2015      2013      2014      2015      2016
      2015      2017      2015      2027      2027      2028      2027      2029
      2027      2030      2030      2031      2030      2032      2030      2033
      2033      2034      2033      2035      2033      2036      2036      2037
      2036      2038      2036      2039      2039      2040      2039      2041
      2039      2042      2042      2043      2042      2044      2042      2045
      2045      2046      2045      2047      2047      2048      2047      2049
      2049      2050      2049      2051      2049      2052      2052      2053
      2052      2054      2052      2055      2055      2056      2055      2057
      2055      2058      2058      2059      2058      2060      2058      2061
      2061      2062      2061      2063      2061      2064      2064      2065
      2064      2066      2064      2067      2067      2068      2067      2069
      2067      2070      2070      2071      2070      2072      2070      2073
      2021      2022      2022      2024      2022      2023      2024      2025
      2024      2026      2024      2074      2074      2075      2074      2076
      2074      2077      2077      2078      2077      2079      2077      2080
      2080      2081      2080      2082      2080      2083      2083      2084
      2083      2085      2083      2086      2086      2087      2086      2088
      2086      2089      2089      2090      2089      2091      2089      2092
      2092      2093      2092      2094      2092      2095      2095      2096
      2095      2097      2095      2098      2098      2099      2098      2100
      2098      2101      2101      2102      2101      2103      2101      2104
      2104      2105      2104      2106      2104      2107      2107      2108
      2107      2109      2107      2110      2110      2111      2110      2112
      2110      2113      2113      2114      2113      2115      2113      2116
      2117      2121      2117      2125      2117      2129      2121      2122
      2121      2123      2121      2124      2125      2126      2125      2127
      2125      2128      2129      2130      2129      2131      2129      2132
      2117      2118      2118      2119      2118      2120      2118      2133
      2133      2134      2133      2135      2133      2139      2140      2141
      2139      2136      2136      2140      2136      2137      2136      2138
      2141      2142      2141      2143      2141      2144      2144      2145
      2144      2152      2144      2146      2152      2153      2152      2154
      2152      2155      2146      2147      2147      2149      2147      2148
      2149      2150      2149      2151      2149      2161      2161      2162
      2161      2163      2161      2164      2164      2165      2164      2166
      2164      2167      2167      2168      2167      2169      2167      2170
      2170      2171      2170      2172      2170      2173      2173      2174
      2173      2175      2173      2176      2176      2177      2176      2178
      2176      2179      2179      2180      2179      2181      2181      2182
      2181      2183      2183      2184      2183      2185      2183      2186
      2186      2187      2186      2188      2186      2189      2189      2190
      2189      2191      2189      2192      2192      2193      2192      2194
      2192      2195      2195      2196      2195      2197      2195      2198
      2198      2199      2198      2200      2198      2201      2201      2202
      2201      2203      2201      2204      2204      2205      2204      2206
      2204      2207      2155      2156      2156      2158      2156      2157
      2158      2159      2158      2160      2158      2208      2208      2209
      2208      2210      2208      2211      2211      2212      2211      2213
      2211      2214      2214      2215      2214      2216      2214      2217
      2217      2218      2217      2219      2217      2220      2220      2221
      2220      2222      2220      2223      2223      2224      2223      2225
      2223      2226      2226      2227      2226      2228      2226      2229
      2229      2230      2229      2231      2229      2232      2232      2233
      2232      2234      2232      2235      2235      2236      2235      2237
      2235      2238      2238      2239      2238      2240      2238      2241
      2241      2242      2241      2243      2241      2244      2244      2245
      2244      2246      2244      2247      2247      2248      2247      2249
      2247      2250      2251      2255      2251      2259      2251      2263
      2255      2256      2255      2257      2255      2258      2259      2260
      2259      2261      2259      2262      2263      2264      2263      2265
      2263      2266      2251      2252      2252      2253      2252      2254
      2252      2267      2267      2268      2267      2269      2267      2273
      2274      2275      2273      2270      2270      2274      2270      2271
      2270      2272      2275      2276      2275      2277      2275      2278
      2278      2279      2278      2286      2278      2280      2286      2287
      2286      2288      2286      2289      2280      2281      2281      2283
      2281      2282      2283      2284      2283      2285      2283      2295
      2295      2296      2295      2297      2295      2298      2298      2299
      2298      2300      2298      2301      2301      2302      2301      2303
      2301      2304      2304      2305      2304      2306      2304      2307
      2307      2308      2307      2309      2307      2310      2310      2311
      2310      2312      2310      2313      2313      2314      2313      2315
      2315      2316      2315      2317      2317      2318      2317      2319
      2317      2320      2320      2321      2320      2322      2320      2323
      2323      2324      2323      2325      2323      2326      2326      2327
      2326      2328      2326      2329      2329      2330      2329      2331
      2329      2332      2332      2333      2332      2334      2332      2335
      2335      2336      2335      2337      2335      2338      2338      2339
      2338      2340      2338      2341      2289      2290      2290      2292
      2290      2291      2292      2293      2292      2294      2292      2342
      2342      2343      2342      2344      2342      2345      2345      2346
      2345      2347      2345      2348      2348      2349      2348      2350
      2348      2351      2351      2352      2351      2353      2351      2354
      2354      2355      2354      2356      2354      2357      2357      2358
      2357      2359      2357      2360      2360      2361      2360      2362
      2360      2363      2363      2364      2363      2365      2363      2366
      2366      2367      2366      2368      2366      2369      2369      2370
      2369      2371      2369      2372      2372      2373      2372      2374
      2372      2375      2375      2376      2375      2377      2375      2378
      2378      2379      2378      2380      2378      2381      2381      2382
      2381      2383      2381      2384      2385      2389      2385      2393
      2385      2397      2389      2390      2389      2391      2389      2392
      2393      2394      2393      2395      2393      2396      2397      2398
      2397      2399      2397      2400      2385      2386      2386      2387
      2386      2388      2386      2401      2401      2402      2401      2403
      2401      2407      2408      2409      2407      2404      2404      2408
      2404      2405      2404      2406      2409      2410      2409      2411
      2409      2412      2412      2413      2412      2420      2412      2414
      2420      2421      2420      2422      2420      2423      2414      2415
      2415      2417      2415      2416      2417      2418      2417      2419
      2417      2429      2429      2430      2429      2431      2429      2432
      2432      2433      2432      2434      2432      2435      2435      2436
      2435      2437      2435      2438      2438      2439      2438      2440
      2438      2441      2441      2442      2441      2443      2441      2444
      2444      2445      2444      2446      2444      2447      2447      2448
      2447      2449      2449      2450      2449      2451      2451      2452
      2451      2453      2451      2454      2454      2455      2454      2456
      2454      2457      2457      2458      2457      2459      2457      2460
      2460      2461      2460      2462      2460      2463      2463      2464
      2463      2465      2463      2466      2466      2467      2466      2468
      2466      2469      2469      2470      2469      2471      2469      2472
      2472      2473      2472      2474      2472      2475      2423      2424
      2424      2426      2424      2425      2426      2427      2426      2428
      2426      2476      2476      2477      2476      2478      2476      2479
      2479      2480      2479      2481      2479      2482      2482      2483
      2482      2484      2482      2485      2485      2486      2485      2487
      2485      2488      2488      2489      2488      2490      2488      2491
      2491      2492      2491      2493      2491      2494      2494      2495
      2494      2496      2494      2497      2497      2498      2497      2499
      2497      2500      2500      2501      2500      2502      2500      2503
      2503      2504      2503      2505      2503      2506      2506      2507
      2506      2508      2506      2509      2509      2510      2509      2511
      2509      2512      2512      2513      2512      2514      2512      2515
      2515      2516      2515      2517      2515      2518      2519      2523
      2519      2527      2519      2531      2523      2524      2523      2525
      2523      2526      2527      2528      2527      2529      2527      2530
      2531      2532      2531      2533      2531      2534      2519      2520
      2520      2521      2520      2522      2520      2535      2535      2536
      2535      2537      2535      2541      2542      2543      2541      2538
      2538      2542      2538      2539      2538      2540      2543      2544
      2543      2545      2543      2546      2546      2547      2546      2554
      2546      2548      2554      2555      2554      2556      2554      2557
      2548      2549      2549      2551      2549      2550      2551      2552
      2551      2553      2551      2563      2563      2564      2563      2565
      2563      2566      2566      2567      2566      2568      2566      2569
      2569      2570      2569      2571      2569      2572      2572      2573
      2572      2574      2572      2575      2575      2576      2575      2577
      2575      2578      2578      2579      2578      2580      2578      2581
      2581      2582      2581      2583      2583      2584      2583      2585
      2585      2586      2585      2587      2585      2588      2588      2589
      2588      2590      2588      2591      2591      2592      2591      2593
      2591      2594      2594      2595      2594      2596      2594      2597
      2597      2598      2597      2599      2597      2600      2600      2601
      2600      2602      2600      2603      2603      2604      2603      2605
      2603      2606      2606      2607      2606      2608      2606      2609
      2557      2558      2558      2560      2558      2559      2560      2561
      2560      2562      2560      2610      2610      2611      2610      2612
      2610      2613      2613      2614      2613      2615      2613      2616
      2616      2617      2616      2618      2616      2619      2619      2620
      2619      2621      2619      2622      2622      2623      2622      2624
      2622      2625      2625      2626      2625      2627      2625      2628
      2628      2629      2628      2630      2628      2631      2631      2632
      2631      2633      2631      2634      2634      2635      2634      2636
      2634      2637      2637      2638      2637      2639      2637      2640
      2640      2641      2640      2642      2640      2643      2643      2644
      2643      2645      2643      2646      2646      2647      2646      2648
      2646      2649      2649      2650      2649      2651      2649      2652
      2653      2657      2653      2661      2653      2665      2657      2658
      2657      2659      2657      2660      2661      2662      2661      2663
      2661      2664      2665      2666      2665      2667      2665      2668
      2653      2654      2654      2655      2654      2656      2654      2669
      2669      2670      2669      2671      2669      2675      2676      2677
      2675      2672      2672      2676      2672      2673      2672      2674
      2677      2678      2677      2679      2677      2680      2680      2681
      2680      2688      2680      2682      2688      2689      2688      2690
      2688      2691      2682      2683      2683      2685      2683      2684
      2685      2686      2685      2687      2685      2697      2697      2698
      2697      2699      2697      2700      2700      2701      2700      2702
      2700      2703      2703      2704      2703      2705      2703      2706
      2706      2707      2706      2708      2706      2709      2709      2710
      2709      2711      2709      2712      2712      2713      2712      2714
      2712      2715      2715      2716      2715      2717      2717      2718
      2717      2719      2719      2720      2719      2721      2719      2722
      2722      2723      2722      2724      2722      2725      2725      2726
      2725      2727      2725      2728      2728      2729      2728      2730
      2728      2731      2731      2732      2731      2733      2731      2734
      2734      2735      2734      2736      2734      2737      2737      2738
      2737      2739      2737      2740      2740      2741      2740      2742
      2740      2743      2691      2692      2692      2694      2692      2693
      2694      2695      2694      2696      2694      2744      2744      2745
      2744      2746      2744      2747      2747      2748      2747      2749
      2747      2750      2750      2751      2750      2752      2750      2753
      2753      2754      2753      2755      2753      2756      2756      2757
      2756      2758      2756      2759      2759      2760      2759      2761
      2759      2762      2762      2763      2762      2764      2762      2765
      2765      2766      2765      2767      2765      2768      2768      2769
      2768      2770      2768      2771      2771      2772      2771      2773
      2771      2774      2774      2775      2774      2776      2774      2777
      2777      2778      2777      2779      2777      2780      2780      2781
      2780      2782      2780      2783      2783      2784      2783      2785
      2783      2786      2787      2791      2787      2795      2787      2799
      2791      2792      2791      2793      2791      2794      2795      2796
      2795      2797      2795      2798      2799      2800      2799      2801
      2799      2802      2787      2788      2788      2789      2788      2790
      2788      2803      2803      2804      2803      2805      2803      2809
      2810      2811      2809      2806      2806      2810      2806      2807
      2806      2808      2811      2812      2811      2813      2811      2814
      2814      2815      2814      2822      2814      2816      2822      2823
      2822      2824      2822      2825      2816      2817      2817      2819
      2817      2818      2819      2820      2819      2821      2819      2831
      2831      2832      2831      2833      2831      2834      2834      2835
      2834      2836      2834      2837      2837      2838      2837      2839
      2837      2840      2840      2841      2840      2842      2840      2843
      2843      2844      2843      2845      2843      2846      2846      2847
      2846      2848      2846      2849      2849      2850      2849      2851
      2851      2852      2851      2853      2853      2854      2853      2855
      2853      2856      2856      2857      2856      2858      2856      2859
      2859      2860      2859      2861      2859      2862      2862      2863
      2862      2864      2862      2865      2865      2866      2865      2867
      2865      2868      2868      2869      2868      2870      2868      2871
      2871      2872      2871      2873      2871      2874      2874      2875
      2874      2876      2874      2877      2825      2826      2826      2828
      2826      2827      2828      2829      2828      2830      2828      2878
      2878      2879      2878      2880      2878      2881      2881      2882
      2881      2883      2881      2884      2884      2885      2884      2886
      2884      2887      2887      2888      2887      2889      2887      2890
      2890      2891      2890      2892      2890      2893      2893      2894
      2893      2895      2893      2896      2896      2897      2896      2898
      2896      2899      2899      2900      2899      2901      2899      2902
      2902      2903      2902      2904      2902      2905      2905      2906
      2905      2907      2905      2908      2908      2909      2908      2910
      2908      2911      2911      2912      2911      2913      2911      2914
      2914      2915      2914      2916      2914      2917      2917      2918
      2917      2919      2917      2920      2921      2925      2921      2929
      2921      2933      2925      2926      2925      2927      2925      2928
      2929      2930      2929      2931      2929      2932      2933      2934
      2933      2935      2933      2936      2921      2922      2922      2923
      2922      2924      2922      2937      2937      2938      2937      2939
      2937      2943      2944      2945      2943      2940      2940      2944
      2940      2941      2940      2942      2945      2946      2945      2947
      2945      2948      2948      2949      2948      2956      2948      2950
      2956      2957      2956      2958      2956      2959      2950      2951
      2951      2953      2951      2952      2953      2954      2953      2955
      2953      2965      2965      2966      2965      2967      2965      2968
      2968      2969      2968      2970      2968      2971      2971      2972
      2971      2973      2971      2974      2974      2975      2974      2976
      2974      2977      2977      2978      2977      2979      2977      2980
      2980      2981      2980      2982      2980      2983      2983      2984
      2983      2985      2985      2986      2985      2987      2987      2988
      2987      2989      2987      2990      2990      2991      2990      2992
      2990      2993      2993      2994      2993      2995      2993      2996
      2996      2997      2996      2998      2996      2999      2999      3000
      2999      3001      2999      3002      3002      3003      3002      3004
      3002      3005      3005      3006      3005      3007      3005      3008
      3008      3009      3008      3010      3008      3011      2959      2960
      2960      2962      2960      2961      2962      2963      2962      2964
      2962      3012      3012      3013      3012      3014      3012      3015
      3015      3016      3015      3017      3015      3018      3018      3019
      3018      3020      3018      3021      3021      3022      3021      3023
      3021      3024      3024      3025      3024      3026      3024      3027
      3027      3028      3027      3029      3027      3030      3030      3031
      3030      3032      3030      3033      3033      3034      3033      3035
      3033      3036      3036      3037      3036      3038      3036      3039
      3039      3040      3039      3041      3039      3042      3042      3043
      3042      3044      3042      3045      3045      3046      3045      3047
      3045      3048      3048      3049      3048      3050      3048      3051
      3051      3052      3051      3053      3051      3054      3055      3059
      3055      3063      3055      3067      3059      3060      3059      3061
      3059      3062      3063      3064      3063      3065      3063      3066
      3067      3068      3067      3069      3067      3070      3055      3056
      3056      3057      3056      3058      3056      3071      3071      3072
      3071      3073      3071      3077      3078      3079      3077      3074
      3074      3078      3074      3075      3074      3076      3079      3080
      3079      3081      3079      3082      3082      3083      3082      3090
      3082      3084      3090      3091      3090      3092      3090      3093
      3084      3085      3085      3087      3085      3086      3087      3088
      3087      3089      3087      3099      3099      3100      3099      3101
      3099      3102      3102      3103      3102      3104      3102      3105
      3105      3106      3105      3107      3105      3108      3108      3109
      3108      3110      3108      3111      3111      3112      3111      3113
      3111      3114      3114      3115      3114      3116      3114      3117
      3117      3118      3117      3119      3119      3120      3119      3121
      3121      3122      3121      3123      3121      3124      3124      3125
      3124      3126      3124      3127      3127      3128      3127      3129
      3127      3130      3130      3131      3130      3132      3130      3133
      3133      3134      3133      3135      3133      3136      3136      3137
      3136      3138      3136      3139      3139      3140      3139      3141
      3139      3142      3142      3143      3142      3144      3142      3145
      3093      3094      3094      3096      3094      3095      3096      3097
      3096      3098      3096      3146      3146      3147      3146      3148
      3146      3149      3149      3150      3149      3151      3149      3152
      3152      3153      3152      3154      3152      3155      3155      3156
      3155      3157      3155      3158      3158      3159      3158      3160
      3158      3161      3161      3162      3161      3163      3161      3164
      3164      3165      3164      3166      3164      3167      3167      3168
      3167      3169      3167      3170      3170      3171      3170      3172
      3170      3173      3173      3174      3173      3175      3173      3176
      3176      3177      3176      3178      3176      3179      3179      3180
      3179      3181      3179      3182      3182      3183      3182      3184
      3182      3185      3185      3186      3185      3187      3185      3188
      3189      3190      3189      3191      3189      3192      3189      3193
      3197      3195      3195      3193      3195      3196      3193      3194
      3193      3198      3206      3205      3198      3199      3198      3200
      3198      3204      3204      3201      3201      3205      3201      3202
      3201      3203      3206      3207      3206      3208      3206      3209
      3209      3210      3209      3217      3209      3211      3217      3218
      3217      3219      3217      3220      3211      3212      3212      3214
      3212      3213      3214      3215      3214      3216      3214      3226
      3226      3227      3226      3228      3226      3229      3229      3230
      3229      3231      3229      3232      3232      3233      3232      3234
      3232      3235      3235      3236      3235      3237      3235      3238
      3238      3239      3238      3240      3238      3241      3241      3242
      3241      3243      3241      3244      3244      3245      3244      3246
      3246      3247      3246      3248      3248      3249      3248      3250
      3248      3251      3251      3252      3251      3253      3251      3254
      3254      3255      3254      3256      3254      3257      3257      3258
      3257      3259      3257      3260      3260      3261      3260      3262
      3260      3263      3263      3264      3263      3265      3263      3266
      3266      3267      3266      3268      3266      3269      3269      3270
      3269      3271      3269      3272      3220      3221      3221      3223
      3221      3222      3223      3224      3223      3225      3223      3273
      3273      3274      3273      3275      3273      3276      3276      3277
      3276      3278      3276      3279      3279      3280      3279      3281
      3279      3282      3282      3283      3282      3284      3282      3285
      3285      3286      3285      3287      3285      3288      3288      3289
      3288      3290      3288      3291      3291      3292      3291      3293
      3291      3294      3294      3295      3294      3296      3294      3297
      3297      3298      3297      3299      3297      3300      3300      3301
      3300      3302      3300      3303      3303      3304      3303      3305
      3303      3306      3306      3307      3306      3308      3306      3309
      3309      3310      3309      3311      3309      3312      3312      3313
      3312      3314      3312      3315      3316      3320      3316      3324
      3316      3328      3320      3321      3320      3322      3320      3323
      3324      3325      3324      3326      3324      3327      3328      3329
      3328      3330      3328      3331      3316      3317      3317      3318
      3317      3319      3317      3332      3332      3333      3332      3334
      3332      3338      3339      3340      3338      3335      3335      3339
      3335      3336      3335      3337      3340      3341      3340      3342
      3340      3343      3343      3344      3343      3351      3343      3345
      3351      3352      3351      3353      3351      3354      3345      3346
      3346      3348      3346      3347      3348      3349      3348      3350
      3348      3360      3360      3361      3360      3362      3360      3363
      3363      3364      3363      3365      3363      3366      3366      3367
      3366      3368      3366      3369      3369      3370      3369      3371
      3369      3372      3372      3373      3372      3374      3372      3375
      3375      3376      3375      3377      3375      3378      3378      3379
      3378      3380      3380      3381      3380      3382      3382      3383
      3382      3384      3382      3385      3385      3386      3385      3387
      3385      3388      3388      3389      3388      3390      3388      3391
      3391      3392      3391      3393      3391      3394      3394      3395
      3394      3396      3394      3397      3397      3398      3397      3399
      3397      3400      3400      3401      3400      3402      3400      3403
      3403      3404      3403      3405      3403      3406      3354      3355
      3355      3357      3355      3356      3357      3358      3357      3359
      3357      3407      3407      3408      3407      3409      3407      3410
      3410      3411      3410      3412      3410      3413      3413      3414
      3413      3415      3413      3416      3416      3417      3416      3418
      3416      3419      3419      3420      3419      3421      3419      3422
      3422      3423      3422      3424      3422      3425      3425      3426
      3425      3427      3425      3428      3428      3429      3428      3430
      3428      3431      3431      3432      3431      3433      3431      3434
      3434      3435      3434      3436      3434      3437      3437      3438
      3437      3439      3437      3440      3440      3441      3440      3442
      3440      3443      3443      3444      3443      3445      3443      3446
      3446      3447      3446      3448      3446      3449      3450      3454
      3450      3458      3450      3462      3454      3455      3454      3456
      3454      3457      3458      3459      3458      3460      3458      3461
      3462      3463      3462      3464      3462      3465      3450      3451
      3451      3452      3451      3453      3451      3466      3466      3467
      3466      3468      3466      3472      3473      3474      3472      3469
      3469      3473      3469      3470      3469      3471      3474      3475
      3474      3476      3474      3477      3477      3478      3477      3485
      3477      3479      3485      3486      3485      3487      3485      3488
      3479      3480      3480      3482      3480      3481      3482      3483
      3482      3484      3482      3494      3494      3495      3494      3496
      3494      3497      3497      3498      3497      3499      3497      3500
      3500      3501      3500      3502      3500      3503      3503      3504
      3503      3505      3503      3506      3506      3507      3506      3508
      3506      3509      3509      3510      3509      3511      3509      3512
      3512      3513      3512      3514      3514      3515      3514      3516
      3516      3517      3516      3518      3516      3519      3519      3520
      3519      3521      3519      3522      3522      3523      3522      3524
      3522      3525      3525      3526      3525      3527      3525      3528
      3528      3529      3528      3530      3528      3531      3531      3532
      3531      3533      3531      3534      3534      3535      3534      3536
      3534      3537      3537      3538      3537      3539      3537      3540
      3488      3489      3489      3491      3489      3490      3491      3492
      3491      3493      3491      3541      3541      3542      3541      3543
      3541      3544      3544      3545      3544      3546      3544      3547
      3547      3548      3547      3549      3547      3550      3550      3551
      3550      3552      3550      3553      3553      3554      3553      3555
      3553      3556      3556      3557      3556      3558      3556      3559
      3559      3560      3559      3561      3559      3562      3562      3563
      3562      3564      3562      3565      3565      3566      3565      3567
      3565      3568      3568      3569      3568      3570      3568      3571
      3571      3572      3571      3573      3571      3574      3574      3575
      3574      3576      3574      3577      3577      3578      3577      3579
      3577      3580      3580      3581      3580      3582      3580      3583
      3584      3588      3584      3592      3584      3596      3588      3589
      3588      3590      3588      3591      3592      3593      3592      3594
      3592      3595      3596      3597      3596      3598      3596      3599
      3584      3585      3585      3586      3585      3587      3585      3600
      3600      3601      3600      3602      3600      3606      3607      3608
      3606      3603      3603      3607      3603      3604      3603      3605
      3608      3609      3608      3610      3608      3611      3611      3612
      3611      3619      3611      3613      3619      3620      3619      3621
      3619      3622      3613      3614      3614      3616      3614      3615
      3616      3617      3616      3618      3616      3628      3628      3629
      3628      3630      3628      3631      3631      3632      3631      3633
      3631      3634      3634      3635      3634      3636      3634      3637
      3637      3638      3637      3639      3637      3640      3640      3641
      3640      3642      3640      3643      3643      3644      3643      3645
      3643      3646      3646      3647      3646      3648      3648      3649
      3648      3650      3650      3651      3650      3652      3650      3653
      3653      3654      3653      3655      3653      3656      3656      3657
      3656      3658      3656      3659      3659      3660      3659      3661
      3659      3662      3662      3663      3662      3664      3662      3665
      3665      3666      3665      3667      3665      3668      3668      3669
      3668      3670      3668      3671      3671      3672      3671      3673
      3671      3674      3622      3623      3623      3625      3623      3624
      3625      3626      3625      3627      3625      3675      3675      3676
      3675      3677      3675      3678      3678      3679      3678      3680
      3678      3681      3681      3682      3681      3683      3681      3684
      3684      3685      3684      3686      3684      3687      3687      3688
      3687      3689      3687      3690      3690      3691      3690      3692
      3690      3693      3693      3694      3693      3695      3693      3696
      3696      3697      3696      3698      3696      3699      3699      3700
      3699      3701      3699      3702      3702      3703      3702      3704
      3702      3705      3705      3706      3705      3707      3705      3708
      3708      3709      3708      3710      3708      3711      3711      3712
      3711      3713      3711      3714      3714      3715      3714      3716
      3714      3717      3718      3722      3718      3726      3718      3730
      3722      3723      3722      3724      3722      3725      3726      3727
      3726      3728      3726      3729      3730      3731      3730      3732
      3730      3733      3718      3719      3719      3720      3719      3721
      3719      3734      3734      3735      3734      3736      3734      3740
      3741      3742      3740      3737      3737      3741      3737      3738
      3737      3739      3742      3743      3742      3744      3742      3745
      3745      3746      3745      3753      3745      3747      3753      3754
      3753      3755      3753      3756      3747      3748      3748      3750
      3748      3749      3750      3751      3750      3752      3750      3762
      3762      3763      3762      3764      3762      3765      3765      3766
      3765      3767      3765      3768      3768      3769      3768      3770
      3768      3771      3771      3772      3771      3773      3771      3774
      3774      3775      3774      3776      3774      3777      3777      3778
      3777      3779      3777      3780      3780      3781      3780      3782
      3782      3783      3782      3784      3784      3785      3784      3786
      3784      3787      3787      3788      3787      3789      3787      3790
      3790      3791      3790      3792      3790      3793      3793      3794
      3793      3795      3793      3796      3796      3797      3796      3798
      3796      3799      3799      3800      3799      3801      3799      3802
      3802      3803      3802      3804      3802      3805      3805      3806
      3805      3807      3805      3808      3756      3757      3757      3759
      3757      3758      3759      3760      3759      3761      3759      3809
      3809      3810      3809      3811      3809      3812      3812      3813
      3812      3814      3812      3815      3815      3816      3815      3817
      3815      3818      3818      3819      3818      3820      3818      3821
      3821      3822      3821      3823      3821      3824      3824      3825
      3824      3826      3824      3827      3827      3828      3827      3829
      3827      3830      3830      3831      3830      3832      3830      3833
      3833      3834      3833      3835      3833      3836      3836      3837
      3836      3838      3836      3839      3839      3840      3839      3841
      3839      3842      3842      3843      3842      3844      3842      3845
      3845      3846      3845      3847      3845      3848      3848      3849
      3848      3850      3848      3851      3852      3856      3852      3860
      3852      3864      3856      3857      3856      3858      3856      3859
      3860      3861      3860      3862      3860      3863      3864      3865
      3864      3866      3864      3867      3852      3853      3853      3854
      3853      3855      3853      3868      3868      3869      3868      3870
      3868      3874      3875      3876      3874      3871      3871      3875
      3871      3872      3871      3873      3876      3877      3876      3878
      3876      3879      3879      3880      3879      3887      3879      3881
      3887      3888      3887      3889      3887      3890      3881      3882
      3882      3884      3882      3883      3884      3885      3884      3886
      3884      3896      3896      3897      3896      3898      3896      3899
      3899      3900      3899      3901      3899      3902      3902      3903
      3902      3904      3902      3905      3905      3906      3905      3907
      3905      3908      3908      3909      3908      3910      3908      3911
      3911      3912      3911      3913      3911      3914      3914      3915
      3914      3916      3916      3917      3916      3918      3918      3919
      3918      3920      3918      3921      3921      3922      3921      3923
      3921      3924      3924      3925      3924      3926      3924      3927
      3927      3928      3927      3929      3927      3930      3930      3931
      3930      3932      3930      3933      3933      3934      3933      3935
      3933      3936      3936      3937      3936      3938      3936      3939
      3939      3940      3939      3941      3939      3942      3890      3891
      3891      3893      3891      3892      3893      3894      3893      3895
      3893      3943      3943      3944      3943      3945      3943      3946
      3946      3947      3946      3948      3946      3949      3949      3950
      3949      3951      3949      3952      3952      3953      3952      3954
      3952      3955      3955      3956      3955      3957      3955      3958
      3958      3959      3958      3960      3958      3961      3961      3962
      3961      3963      3961      3964      3964      3965      3964      3966
      3964      3967      3967      3968      3967      3969      3967      3970
      3970      3971      3970      3972      3970      3973      3973      3974
      3973      3975      3973      3976      3976      3977      3976      3978
      3976      3979      3979      3980      3979      3981      3979      3982
      3982      3983      3982      3984      3982      3985      3986      3987
      3986      3988      3986      3989      3986      3990      3994      3992
      3992      3990      3992      3993      3990      3991      3990      3995
      4003      4002      3995      3996      3995      3997      3995      4001
      4001      3998      3998      4002      3998      3999      3998      4000
      4003      4004      4003      4005      4003      4006      4006      4007
      4006      4014      4006      4008      4014      4015      4014      4016
      4014      4017      4008      4009      4009      4011      4009      4010
      4011      4012      4011      4013      4011      4023      4023      4024
      4023      4025      4023      4026      4026      4027      4026      4028
      4026      4029      4029      4030      4029      4031      4029      4032
      4032      4033      4032      4034      4032      4035      4035      4036
      4035      4037      4035      4038      4038      4039      4038      4040
      4038      4041      4041      4042      4041      4043      4043      4044
      4043      4045      4045      4046      4045      4047      4045      4048
      4048      4049      4048      4050      4048      4051      4051      4052
      4051      4053      4051      4054      4054      4055      4054      4056
      4054      4057      4057      4058      4057      4059      4057      4060
      4060      4061      4060      4062      4060      4063      4063      4064
      4063      4065      4063      4066      4066      4067      4066      4068
      4066      4069      4017      4018      4018      4020      4018      4019
      4020      4021      4020      4022      4020      4070      4070      4071
      4070      4072      4070      4073      4073      4074      4073      4075
      4073      4076      4076      4077      4076      4078      4076      4079
      4079      4080      4079      4081      4079      4082      4082      4083
      4082      4084      4082      4085      4085      4086      4085      4087
      4085      4088      4088      4089      4088      4090      4088      4091
      4091      4092      4091      4093      4091      4094      4094      4095
      4094      4096      4094      4097      4097      4098      4097      4099
      4097      4100      4100      4101      4100      4102      4100      4103
      4103      4104      4103      4105      4103      4106      4106      4107
      4106      4108      4106      4109      4109      4110      4109      4111
      4109      4112      4113      4117      4113      4121      4113      4125
      4117      4118      4117      4119      4117      4120      4121      4122
      4121      4123      4121      4124      4125      4126      4125      4127
      4125      4128      4113      4114      4114      4115      4114      4116
      4114      4129      4129      4130      4129      4131      4129      4135
      4136      4137      4135      4132      4132      4136      4132      4133
      4132      4134      4137      4138      4137      4139      4137      4140
      4140      4141      4140      4148      4140      4142      4148      4149
      4148      4150      4148      4151      4142      4143      4143      4145
      4143      4144      4145      4146      4145      4147      4145      4157
      4157      4158      4157      4159      4157      4160      4160      4161
      4160      4162      4160      4163      4163      4164      4163      4165
      4163      4166      4166      4167      4166      4168      4166      4169
      4169      4170      4169      4171      4169      4172      4172      4173
      4172      4174      4172      4175      4175      4176      4175      4177
      4177      4178      4177      4179      4179      4180      4179      4181
      4179      4182      4182      4183      4182      4184      4182      4185
      4185      4186      4185      4187      4185      4188      4188      4189
      4188      4190      4188      4191      4191      4192      4191      4193
      4191      4194      4194      4195      4194      4196      4194      4197
      4197      4198      4197      4199      4197      4200      4200      4201
      4200      4202      4200      4203      4151      4152      4152      4154
      4152      4153      4154      4155      4154      4156      4154      4204
      4204      4205      4204      4206      4204      4207      4207      4208
      4207      4209      4207      4210      4210      4211      4210      4212
      4210      4213      4213      4214      4213      4215      4213      4216
      4216      4217      4216      4218      4216      4219      4219      4220
      4219      4221      4219      4222      4222      4223      4222      4224
      4222      4225      4225      4226      4225      4227      4225      4228
      4228      4229      4228      4230      4228      4231      4231      4232
      4231      4233      4231      4234      4234      4235      4234      4236
      4234      4237      4237      4238      4237      4239      4237      4240
      4240      4241      4240      4242      4240      4243      4243      4244
      4243      4245      4243      4246      4247      4251      4247      4255
      4247      4259      4251      4252      4251      4253      4251      4254
      4255      4256      4255      4257      4255      4258      4259      4260
      4259      4261      4259      4262      4247      4248      4248      4249
      4248      4250      4248      4263      4263      4264      4263      4265
      4263      4269      4270      4271      4269      4266      4266      4270
      4266      4267      4266      4268      4271      4272      4271      4273
      4271      4274      4274      4275      4274      4282      4274      4276
      4282      4283      4282      4284      4282      4285      4276      4277
      4277      4279      4277      4278      4279      4280      4279      4281
      4279      4291      4291      4292      4291      4293      4291      4294
      4294      4295      4294      4296      4294      4297      4297      4298
      4297      4299      4297      4300      4300      4301      4300      4302
      4300      4303      4303      4304      4303      4305      4303      4306
      4306      4307      4306      4308      4306      4309      4309      4310
      4309      4311      4311      4312      4311      4313      4313      4314
      4313      4315      4313      4316      4316      4317      4316      4318
      4316      4319      4319      4320      4319      4321      4319      4322
      4322      4323      4322      4324      4322      4325      4325      4326
      4325      4327      4325      4328      4328      4329      4328      4330
      4328      4331      4331      4332      4331      4333      4331      4334
      4334      4335      4334      4336      4334      4337      4285      4286
      4286      4288      4286      4287      4288      4289      4288      4290
      4288      4338      4338      4339      4338      4340      4338      4341
      4341      4342      4341      4343      4341      4344      4344      4345
      4344      4346      4344      4347      4347      4348      4347      4349
      4347      4350      4350      4351      4350      4352      4350      4353
      4353      4354      4353      4355      4353      4356      4356      4357
      4356      4358      4356      4359      4359      4360      4359      4361
      4359      4362      4362      4363      4362      4364      4362      4365
      4365      4366      4365      4367      4365      4368      4368      4369
      4368      4370      4368      4371      4371      4372      4371      4373
      4371      4374      4374      4375      4374      4376      4374      4377
      4377      4378      4377      4379      4377      4380      4381      4385
      4381      4389      4381      4393      4385      4386      4385      4387
      4385      4388      4389      4390      4389      4391      4389      4392
      4393      4394      4393      4395      4393      4396      4381      4382
      4382      4383      4382      4384      4382      4397      4397      4398
      4397      4399      4397      4403      4404      4405      4403      4400
      4400      4404      4400      4401      4400      4402      4405      4406
      4405      4407      4405      4408      4408      4409      4408      4416
      4408      4410      4416      4417      4416      4418      4416      4419
      4410      4411      4411      4413      4411      4412      4413      4414
      4413      4415      4413      4425      4425      4426      4425      4427
      4425      4428      4428      4429      4428      4430      4428      4431
      4431      4432      4431      4433      4431      4434      4434      4435
      4434      4436      4434      4437      4437      4438      4437      4439
      4437      4440      4440      4441      4440      4442      4440      4443
      4443      4444      4443      4445      4445      4446      4445      4447
      4447      4448      4447      4449      4447      4450      4450      4451
      4450      4452      4450      4453      4453      4454      4453      4455
      4453      4456      4456      4457      4456      4458      4456      4459
      4459      4460      4459      4461      4459      4462      4462      4463
      4462      4464      4462      4465      4465      4466      4465      4467
      4465      4468      4468      4469      4468      4470      4468      4471
      4419      4420      4420      4422      4420      4421      4422      4423
      4422      4424      4422      4472      4472      4473      4472      4474
      4472      4475      4475      4476      4475      4477      4475      4478
      4478      4479      4478      4480      4478      4481      4481      4482
      4481      4483      4481      4484      4484      4485      4484      4486
      4484      4487      4487      4488      4487      4489      4487      4490
      4490      4491      4490      4492      4490      4493      4493      4494
      4493      4495      4493      4496      4496      4497      4496      4498
      4496      4499      4499      4500      4499      4501      4499      4502
      4502      4503      4502      4504      4502      4505      4505      4506
      4505      4507      4505      4508      4508      4509      4508      4510
      4508      4511      4511      4512      4511      4513      4511      4514
      4515      4519      4515      4523      4515      4527      4519      4520
      4519      4521      4519      4522      4523      4524      4523      4525
      4523      4526      4527      4528      4527      4529      4527      4530
      4515      4516      4516      4517      4516      4518      4516      4531
      4531      4532      4531      4533      4531      4537      4538      4539
      4537      4534      4534      4538      4534      4535      4534      4536
      4539      4540      4539      4541      4539      4542      4542      4543
      4542      4550      4542      4544      4550      4551      4550      4552
      4550      4553      4544      4545      4545      4547      4545      4546
      4547      4548      4547      4549      4547      4559      4559      4560
      4559      4561      4559      4562      4562      4563      4562      4564
      4562      4565      4565      4566      4565      4567      4565      4568
      4568      4569      4568      4570      4568      4571      4571      4572
      4571      4573      4571      4574      4574      4575      4574      4576
      4574      4577      4577      4578      4577      4579      4579      4580
      4579      4581      4581      4582      4581      4583      4581      4584
      4584      4585      4584      4586      4584      4587      4587      4588
      4587      4589      4587      4590      4590      4591      4590      4592
      4590      4593      4593      4594      4593      4595      4593      4596
      4596      4597      4596      4598      4596      4599      4599      4600
      4599      4601      4599      4602      4602      4603      4602      4604
      4602      4605      4553      4554      4554      4556      4554      4555
      4556      4557      4556      4558      4556      4606      4606      4607
      4606      4608      4606      4609      4609      4610      4609      4611
      4609      4612      4612      4613      4612      4614      4612      4615
      4615      4616      4615      4617      4615      4618      4618      4619
      4618      4620      4618      4621      4621      4622      4621      4623
      4621      4624      4624      4625      4624      4626      4624      4627
      4627      4628      4627      4629      4627      4630      4630      4631
      4630      4632      4630      4633      4633      4634      4633      4635
      4633      4636      4636      4637      4636      4638      4636      4639
      4639      4640      4639      4641      4639      4642      4642      4643
      4642      4644      4642      4645      4645      4646      4645      4647
      4645      4648      4649      4653      4649      4657      4649      4661
      4653      4654      4653      4655      4653      4656      4657      4658
      4657      4659      4657      4660      4661      4662      4661      4663
      4661      4664      4649      4650      4650      4651      4650      4652
      4650      4665      4665      4666      4665      4667      4665      4671
      4672      4673      4671      4668      4668      4672      4668      4669
      4668      4670      4673      4674      4673      4675      4673      4676
      4676      4677      4676      4684      4676      4678      4684      4685
      4684      4686      4684      4687      4678      4679      4679      4681
      4679      4680      4681      4682      4681      4683      4681      4693
      4693      4694      4693      4695      4693      4696      4696      4697
      4696      4698      4696      4699      4699      4700      4699      4701
      4699      4702      4702      4703      4702      4704      4702      4705
      4705      4706      4705      4707      4705      4708      4708      4709
      4708      4710      4708      4711      4711      4712      4711      4713
      4713      4714      4713      4715      4715      4716      4715      4717
      4715      4718      4718      4719      4718      4720      4718      4721
      4721      4722      4721      4723      4721      4724      4724      4725
      4724      4726      4724      4727      4727      4728      4727      4729
      4727      4730      4730      4731      4730      4732      4730      4733
      4733      4734      4733      4735      4733      4736      4736      4737
      4736      4738      4736      4739      4687      4688      4688      4690
      4688      4689      4690      4691      4690      4692      4690      4740
      4740      4741      4740      4742      4740      4743      4743      4744
      4743      4745      4743      4746      4746      4747      4746      4748
      4746      4749      4749      4750      4749      4751      4749      4752
      4752      4753      4752      4754      4752      4755      4755      4756
      4755      4757      4755      4758      4758      4759      4758      4760
      4758      4761      4761      4762      4761      4763      4761      4764
      4764      4765      4764      4766      4764      4767      4767      4768
      4767      4769      4767      4770      4770      4771      4770      4772
      4770      4773      4773      4774      4773      4775      4773      4776
      4776      4777      4776      4778      4776      4779      4779      4780
      4779      4781      4779      4782      4783      4784      4783      4785
      4783      4786      4783      4787      4791      4789      4789      4787
      4789      4790      4787      4788      4787      4792      4800      4799
      4792      4793      4792      4794      4792      4798      4798      4795
      4795      4799      4795      4796      4795      4797      4800      4801
      4800      4802      4800      4803      4803      4804      4803      4811
      4803      4805      4811      4812      4811      4813      4811      4814
      4805      4806      4806      4808      4806      4807      4808      4809
      4808      4810      4808      4820      4820      4821      4820      4822
      4820      4823      4823      4824      4823      4825      4823      4826
      4826      4827      4826      4828      4826      4829      4829      4830
      4829      4831      4829      4832      4832      4833      4832      4834
      4832      4835      4835      4836      4835      4837      4835      4838
      4838      4839      4838      4840      4840      4841      4840      4842
      4842      4843      4842      4844      4842      4845      4845      4846
      4845      4847      4845      4848      4848      4849      4848      4850
      4848      4851      4851      4852      4851      4853      4851      4854
      4854      4855      4854      4856      4854      4857      4857      4858
      4857      4859      4857      4860      4860      4861      4860      4862
      4860      4863      4863      4864      4863      4865      4863      4866
      4814      4815      4815      4817      4815      4816      4817      4818
      4817      4819      4817      4867      4867      4868      4867      4869
      4867      4870      4870      4871      4870      4872      4870      4873
      4873      4874      4873      4875      4873      4876      4876      4877
      4876      4878      4876      4879      4879      4880      4879      4881
      4879      4882      4882      4883      4882      4884      4882      4885
      4885      4886      4885      4887      4885      4888      4888      4889
      4888      4890      4888      4891      4891      4892      4891      4893
      4891      4894      4894      4895      4894      4896      4894      4897
      4897      4898      4897      4899      4897      4900      4900      4901
      4900      4902      4900      4903      4903      4904      4903      4905
      4903      4906      4906      4907      4906      4908      4906      4909
      4910      4914      4910      4918      4910      4922      4914      4915
      4914      4916      4914      4917      4918      4919      4918      4920
      4918      4921      4922      4923      4922      4924      4922      4925
      4910      4911      4911      4912      4911      4913      4911      4926
      4926      4927      4926      4928      4926      4932      4933      4934
      4932      4929      4929      4933      4929      4930      4929      4931
      4934      4935      4934      4936      4934      4937      4937      4938
      4937      4945      4937      4939      4945      4946      4945      4947
      4945      4948      4939      4940      4940      4942      4940      4941
      4942      4943      4942      4944      4942      4954      4954      4955
      4954      4956      4954      4957      4957      4958      4957      4959
      4957      4960      4960      4961      4960      4962      4960      4963
      4963      4964      4963      4965      4963      4966      4966      4967
      4966      4968      4966      4969      4969      4970      4969      4971
      4969      4972      4972      4973      4972      4974      4974      4975
      4974      4976      4976      4977      4976      4978      4976      4979
      4979      4980      4979      4981      4979      4982      4982      4983
      4982      4984      4982      4985      4985      4986      4985      4987
      4985      4988      4988      4989      4988      4990      4988      4991
      4991      4992      4991      4993      4991      4994      4994      4995
      4994      4996      4994      4997      4997      4998      4997      4999
      4997      5000      4948      4949      4949      4951      4949      4950
      4951      4952      4951      4953      4951      5001      5001      5002
      5001      5003      5001      5004      5004      5005      5004      5006
      5004      5007      5007      5008      5007      5009      5007      5010
      5010      5011      5010      5012      5010      5013      5013      5014
      5013      5015      5013      5016      5016      5017      5016      5018
      5016      5019      5019      5020      5019      5021      5019      5022
      5022      5023      5022      5024      5022      5025      5025      5026
      5025      5027      5025      5028      5028      5029      5028      5030
      5028      5031      5031      5032      5031      5033      5031      5034
      5034      5035      5034      5036      5034      5037      5037      5038
      5037      5039      5037      5040      5040      5041      5040      5042
      5040      5043      5044      5048      5044      5052      5044      5056
      5048      5049      5048      5050      5048      5051      5052      5053
      5052      5054      5052      5055      5056      5057      5056      5058
      5056      5059      5044      5045      5045      5046      5045      5047
      5045      5060      5060      5061      5060      5062      5060      5066
      5067      5068      5066      5063      5063      5067      5063      5064
      5063      5065      5068      5069      5068      5070      5068      5071
      5071      5072      5071      5079      5071      5073      5079      5080
      5079      5081      5079      5082      5073      5074      5074      5076
      5074      5075      5076      5077      5076      5078      5076      5088
      5088      5089      5088      5090      5088      5091      5091      5092
      5091      5093      5091      5094      5094      5095      5094      5096
      5094      5097      5097      5098      5097      5099      5097      5100
      5100      5101      5100      5102      5100      5103      5103      5104
      5103      5105      5103      5106      5106      5107      5106      5108
      5108      5109      5108      5110      5110      5111      5110      5112
      5110      5113      5113      5114      5113      5115      5113      5116
      5116      5117      5116      5118      5116      5119      5119      5120
      5119      5121      5119      5122      5122      5123      5122      5124
      5122      5125      5125      5126      5125      5127      5125      5128
      5128      5129      5128      5130      5128      5131      5131      5132
      5131      5133      5131      5134      5082      5083      5083      5085
      5083      5084      5085      5086      5085      5087      5085      5135
      5135      5136      5135      5137      5135      5138      5138      5139
      5138      5140      5138      5141      5141      5142      5141      5143
      5141      5144      5144      5145      5144      5146      5144      5147
      5147      5148      5147      5149      5147      5150      5150      5151
      5150      5152      5150      5153      5153      5154      5153      5155
      5153      5156      5156      5157      5156      5158      5156      5159
      5159      5160      5159      5161      5159      5162      5162      5163
      5162      5164      5162      5165      5165      5166      5165      5167
      5165      5168      5168      5169      5168      5170      5168      5171
      5171      5172      5171      5173      5171      5174      5174      5175
      5174      5176      5174      5177      5178      5182      5178      5186
      5178      5190      5182      5183      5182      5184      5182      5185
      5186      5187      5186      5188      5186      5189      5190      5191
      5190      5192      5190      5193      5178      5179      5179      5180
      5179      5181      5179      5194      5194      5195      5194      5196
      5194      5200      5201      5202      5200      5197      5197      5201
      5197      5198      5197      5199      5202      5203      5202      5204
      5202      5205      5205      5206      5205      5213      5205      5207
      5213      5214      5213      5215      5213      5216      5207      5208
      5208      5210      5208      5209      5210      5211      5210      5212
      5210      5222      5222      5223      5222      5224      5222      5225
      5225      5226      5225      5227      5225      5228      5228      5229
      5228      5230      5228      5231      5231      5232      5231      5233
      5231      5234      5234      5235      5234      5236      5234      5237
      5237      5238      5237      5239      5237      5240      5240      5241
      5240      5242      5242      5243      5242      5244      5244      5245
      5244      5246      5244      5247      5247      5248      5247      5249
      5247      5250      5250      5251      5250      5252      5250      5253
      5253      5254      5253      5255      5253      5256      5256      5257
      5256      5258      5256      5259      5259      5260      5259      5261
      5259      5262      5262      5263      5262      5264      5262      5265
      5265      5266      5265      5267      5265      5268      5216      5217
      5217      5219      5217      5218      5219      5220      5219      5221
      5219      5269      5269      5270      5269      5271      5269      5272
      5272      5273      5272      5274      5272      5275      5275      5276
      5275      5277      5275      5278      5278      5279      5278      5280
      5278      5281      5281      5282      5281      5283      5281      5284
      5284      5285      5284      5286      5284      5287      5287      5288
      5287      5289      5287      5290      5290      5291      5290      5292
      5290      5293      5293      5294      5293      5295      5293      5296
      5296      5297      5296      5298      5296      5299      5299      5300
      5299      5301      5299      5302      5302      5303      5302      5304
      5302      5305      5305      5306      5305      5307      5305      5308
      5308      5309      5308      5310      5308      5311      5312      5316
      5312      5320      5312      5324      5316      5317      5316      5318
      5316      5319      5320      5321      5320      5322      5320      5323
      5324      5325      5324      5326      5324      5327      5312      5313
      5313      5314      5313      5315      5313      5328      5328      5329
      5328      5330      5328      5334      5335      5336      5334      5331
      5331      5335      5331      5332      5331      5333      5336      5337
      5336      5338      5336      5339      5339      5340      5339      5347
      5339      5341      5347      5348      5347      5349      5347      5350
      5341      5342      5342      5344      5342      5343      5344      5345
      5344      5346      5344      5356      5356      5357      5356      5358
      5356      5359      5359      5360      5359      5361      5359      5362
      5362      5363      5362      5364      5362      5365      5365      5366
      5365      5367      5365      5368      5368      5369      5368      5370
      5368      5371      5371      5372      5371      5373      5371      5374
      5374      5375      5374      5376      5376      5377      5376      5378
      5378      5379      5378      5380      5378      5381      5381      5382
      5381      5383      5381      5384      5384      5385      5384      5386
      5384      5387      5387      5388      5387      5389      5387      5390
      5390      5391      5390      5392      5390      5393      5393      5394
      5393      5395      5393      5396      5396      5397      5396      5398
      5396      5399      5399      5400      5399      5401      5399      5402
      5350      5351      5351      5353      5351      5352      5353      5354
      5353      5355      5353      5403      5403      5404      5403      5405
      5403      5406      5406      5407      5406      5408      5406      5409
      5409      5410      5409      5411      5409      5412      5412      5413
      5412      5414      5412      5415      5415      5416      5415      5417
      5415      5418      5418      5419      5418      5420      5418      5421
      5421      5422      5421      5423      5421      5424      5424      5425
      5424      5426      5424      5427      5427      5428      5427      5429
      5427      5430      5430      5431      5430      5432      5430      5433
      5433      5434      5433      5435      5433      5436      5436      5437
      5436      5438      5436      5439      5439      5440      5439      5441
      5439      5442      5442      5443      5442      5444      5442      5445
      5446      5450      5446      5454      5446      5458      5450      5451
      5450      5452      5450      5453      5454      5455      5454      5456
      5454      5457      5458      5459      5458      5460      5458      5461
      5446      5447      5447      5448      5447      5449      5447      5462
      5462      5463      5462      5464      5462      5468      5469      5470
      5468      5465      5465      5469      5465      5466      5465      5467
      5470      5471      5470      5472      5470      5473      5473      5474
      5473      5481      5473      5475      5481      5482      5481      5483
      5481      5484      5475      5476      5476      5478      5476      5477
      5478      5479      5478      5480      5478      5490      5490      5491
      5490      5492      5490      5493      5493      5494      5493      5495
      5493      5496      5496      5497      5496      5498      5496      5499
      5499      5500      5499      5501      5499      5502      5502      5503
      5502      5504      5502      5505      5505      5506      5505      5507
      5505      5508      5508      5509      5508      5510      5510      5511
      5510      5512      5512      5513      5512      5514      5512      5515
      5515      5516      5515      5517      5515      5518      5518      5519
      5518      5520      5518      5521      5521      5522      5521      5523
      5521      5524      5524      5525      5524      5526      5524      5527
      5527      5528      5527      5529      5527      5530      5530      5531
      5530      5532      5530      5533      5533      5534      5533      5535
      5533      5536      5484      5485      5485      5487      5485      5486
      5487      5488      5487      5489      5487      5537      5537      5538
      5537      5539      5537      5540      5540      5541      5540      5542
      5540      5543      5543      5544      5543      5545      5543      5546
      5546      5547      5546      5548      5546      5549      5549      5550
      5549      5551      5549      5552      5552      5553      5552      5554
      5552      5555      5555      5556      5555      5557      5555      5558
      5558      5559      5558      5560      5558      5561      5561      5562
      5561      5563      5561      5564      5564      5565      5564      5566
      5564      5567      5567      5568      5567      5569      5567      5570
      5570      5571      5570      5572      5570      5573      5573      5574
      5573      5575      5573      5576      5576      5577      5576      5578
      5576      5579      5580      5584      5580      5588      5580      5592
      5584      5585      5584      5586      5584      5587      5588      5589
      5588      5590      5588      5591      5592      5593      5592      5594
      5592      5595      5580      5581      5581      5582      5581      5583
      5581      5596      5596      5597      5596      5598      5596      5602
      5603      5604      5602      5599      5599      5603      5599      5600
      5599      5601      5604      5605      5604      5606      5604      5607
      5607      5608      5607      5615      5607      5609      5615      5616
      5615      5617      5615      5618      5609      5610      5610      5612
      5610      5611      5612      5613      5612      5614      5612      5624
      5624      5625      5624      5626      5624      5627      5627      5628
      5627      5629      5627      5630      5630      5631      5630      5632
      5630      5633      5633      5634      5633      5635      5633      5636
      5636      5637      5636      5638      5636      5639      5639      5640
      5639      5641      5639      5642      5642      5643      5642      5644
      5644      5645      5644      5646      5646      5647      5646      5648
      5646      5649      5649      5650      5649      5651      5649      5652
      5652      5653      5652      5654      5652      5655      5655      5656
      5655      5657      5655      5658      5658      5659      5658      5660
      5658      5661      5661      5662      5661      5663      5661      5664
      5664      5665      5664      5666      5664      5667      5667      5668
      5667      5669      5667      5670      5618      5619      5619      5621
      5619      5620      5621      5622      5621      5623      5621      5671
      5671      5672      5671      5673      5671      5674      5674      5675
      5674      5676      5674      5677      5677      5678      5677      5679
      5677      5680      5680      5681      5680      5682      5680      5683
      5683      5684      5683      5685      5683      5686      5686      5687
      5686      5688      5686      5689      5689      5690      5689      5691
      5689      5692      5692      5693      5692      5694      5692      5695
      5695      5696      5695      5697      5695      5698      5698      5699
      5698      5700      5698      5701      5701      5702      5701      5703
      5701      5704      5704      5705      5704      5706      5704      5707
      5707      5708      5707      5709      5707      5710      5710      5711
      5710      5712      5710      5713      5714      5718      5714      5722
      5714      5726      5718      5719      5718      5720      5718      5721
      5722      5723      5722      5724      5722      5725      5726      5727
      5726      5728      5726      5729      5714      5715      5715      5716
      5715      5717      5715      5730      5730      5731      5730      5732
      5730      5736      5737      5738      5736      5733      5733      5737
      5733      5734      5733      5735      5738      5739      5738      5740
      5738      5741      5741      5742      5741      5749      5741      5743
      5749      5750      5749      5751      5749      5752      5743      5744
      5744      5746      5744      5745      5746      5747      5746      5748
      5746      5758      5758      5759      5758      5760      5758      5761
      5761      5762      5761      5763      5761      5764      5764      5765
      5764      5766      5764      5767      5767      5768      5767      5769
      5767      5770      5770      5771      5770      5772      5770      5773
      5773      5774      5773      5775      5773      5776      5776      5777
      5776      5778      5778      5779      5778      5780      5780      5781
      5780      5782      5780      5783      5783      5784      5783      5785
      5783      5786      5786      5787      5786      5788      5786      5789
      5789      5790      5789      5791      5789      5792      5792      5793
      5792      5794      5792      5795      5795      5796      5795      5797
      5795      5798      5798      5799      5798      5800      5798      5801
      5801      5802      5801      5803      5801      5804      5752      5753
      5753      5755      5753      5754      5755      5756      5755      5757
      5755      5805      5805      5806      5805      5807      5805      5808
      5808      5809      5808      5810      5808      5811      5811      5812
      5811      5813      5811      5814      5814      5815      5814      5816
      5814      5817      5817      5818      5817      5819      5817      5820
      5820      5821      5820      5822      5820      5823      5823      5824
      5823      5825      5823      5826      5826      5827      5826      5828
      5826      5829      5829      5830      5829      5831      5829      5832
      5832      5833      5832      5834      5832      5835      5835      5836
      5835      5837      5835      5838      5838      5839      5838      5840
      5838      5841      5841      5842      5841      5843      5841      5844
      5844      5845      5844      5846      5844      5847      5848      5852
      5848      5856      5848      5860      5852      5853      5852      5854
      5852      5855      5856      5857      5856      5858      5856      5859
      5860      5861      5860      5862      5860      5863      5848      5849
      5849      5850      5849      5851      5849      5864      5864      5865
      5864      5866      5864      5870      5871      5872      5870      5867
      5867      5871      5867      5868      5867      5869      5872      5873
      5872      5874      5872      5875      5875      5876      5875      5883
      5875      5877      5883      5884      5883      5885      5883      5886
      5877      5878      5878      5880      5878      5879      5880      5881
      5880      5882      5880      5892      5892      5893      5892      5894
      5892      5895      5895      5896      5895      5897      5895      5898
      5898      5899      5898      5900      5898      5901      5901      5902
      5901      5903      5901      5904      5904      5905      5904      5906
      5904      5907      5907      5908      5907      5909      5907      5910
      5910      5911      5910      5912      5912      5913      5912      5914
      5914      5915      5914      5916      5914      5917      5917      5918
      5917      5919      5917      5920      5920      5921      5920      5922
      5920      5923      5923      5924      5923      5925      5923      5926
      5926      5927      5926      5928      5926      5929      5929      5930
      5929      5931      5929      5932      5932      5933      5932      5934
      5932      5935      5935      5936      5935      5937      5935      5938
      5886      5887      5887      5889      5887      5888      5889      5890
      5889      5891      5889      5939      5939      5940      5939      5941
      5939      5942      5942      5943      5942      5944      5942      5945
      5945      5946      5945      5947      5945      5948      5948      5949
      5948      5950      5948      5951      5951      5952      5951      5953
      5951      5954      5954      5955      5954      5956      5954      5957
      5957      5958      5957      5959      5957      5960      5960      5961
      5960      5962      5960      5963      5963      5964      5963      5965
      5963      5966      5966      5967      5966      5968      5966      5969
      5969      5970      5969      5971      5969      5972      5972      5973
      5972      5974      5972      5975      5975      5976      5975      5977
      5975      5978      5978      5979      5978      5980      5978      5981
      5982      5986      5982      5990      5982      5994      5986      5987
      5986      5988      5986      5989      5990      5991      5990      5992
      5990      5993      5994      5995      5994      5996      5994      5997
      5982      5983      5983      5984      5983      5985      5983      5998
      5998      5999      5998      6000      5998      6004      6005      6006
      6004      6001      6001      6005      6001      6002      6001      6003
      6006      6007      6006      6008      6006      6009      6009      6010
      6009      6017      6009      6011      6017      6018      6017      6019
      6017      6020      6011      6012      6012      6014      6012      6013
      6014      6015      6014      6016      6014      6026      6026      6027
      6026      6028      6026      6029      6029      6030      6029      6031
      6029      6032      6032      6033      6032      6034      6032      6035
      6035      6036      6035      6037      6035      6038      6038      6039
      6038      6040      6038      6041      6041      6042      6041      6043
      6041      6044      6044      6045      6044      6046      6046      6047
      6046      6048      6048      6049      6048      6050      6048      6051
      6051      6052      6051      6053      6051      6054      6054      6055
      6054      6056      6054      6057      6057      6058      6057      6059
      6057      6060      6060      6061      6060      6062      6060      6063
      6063      6064      6063      6065      6063      6066      6066      6067
      6066      6068      6066      6069      6069      6070      6069      6071
      6069      6072      6020      6021      6021      6023      6021      6022
      6023      6024      6023      6025      6023      6073      6073      6074
      6073      6075      6073      6076      6076      6077      6076      6078
      6076      6079      6079      6080      6079      6081      6079      6082
      6082      6083      6082      6084      6082      6085      6085      6086
      6085      6087      6085      6088      6088      6089      6088      6090
      6088      6091      6091      6092      6091      6093      6091      6094
      6094      6095      6094      6096      6094      6097      6097      6098
      6097      6099      6097      6100      6100      6101      6100      6102
      6100      6103      6103      6104      6103      6105      6103      6106
      6106      6107      6106      6108      6106      6109      6109      6110
      6109      6111      6109      6112      6112      6113      6112      6114
      6112      6115      6116      6120      6116      6124      6116      6128
      6120      6121      6120      6122      6120      6123      6124      6125
      6124      6126      6124      6127      6128      6129      6128      6130
      6128      6131      6116      6117      6117      6118      6117      6119
      6117      6132      6132      6133      6132      6134      6132      6138
      6139      6140      6138      6135      6135      6139      6135      6136
      6135      6137      6140      6141      6140      6142      6140      6143
      6143      6144      6143      6151      6143      6145      6151      6152
      6151      6153      6151      6154      6145      6146      6146      6148
      6146      6147      6148      6149      6148      6150      6148      6160
      6160      6161      6160      6162      6160      6163      6163      6164
      6163      6165      6163      6166      6166      6167      6166      6168
      6166      6169      6169      6170      6169      6171      6169      6172
      6172      6173      6172      6174      6172      6175      6175      6176
      6175      6177      6175      6178      6178      6179      6178      6180
      6180      6181      6180      6182      6182      6183      6182      6184
      6182      6185      6185      6186      6185      6187      6185      6188
      6188      6189      6188      6190      6188      6191      6191      6192
      6191      6193      6191      6194      6194      6195      6194      6196
      6194      6197      6197      6198      6197      6199      6197      6200
      6200      6201      6200      6202      6200      6203      6203      6204
      6203      6205      6203      6206      6154      6155      6155      6157
      6155      6156      6157      6158      6157      6159      6157      6207
      6207      6208      6207      6209      6207      6210      6210      6211
      6210      6212      6210      6213      6213      6214      6213      6215
      6213      6216      6216      6217      6216      6218      6216      6219
      6219      6220      6219      6221      6219      6222      6222      6223
      6222      6224      6222      6225      6225      6226      6225      6227
      6225      6228      6228      6229      6228      6230      6228      6231
      6231      6232      6231      6233      6231      6234      6234      6235
      6234      6236      6234      6237      6237      6238      6237      6239
      6237      6240      6240      6241      6240      6242      6240      6243
      6243      6244      6243      6245      6243      6246      6246      6247
      6246      6248      6246      6249      6250      6254      6250      6258
      6250      6262      6254      6255      6254      6256      6254      6257
      6258      6259      6258      6260      6258      6261      6262      6263
      6262      6264      6262      6265      6250      6251      6251      6252
      6251      6253      6251      6266      6266      6267      6266      6268
      6266      6272      6273      6274      6272      6269      6269      6273
      6269      6270      6269      6271      6274      6275      6274      6276
      6274      6277      6277      6278      6277      6285      6277      6279
      6285      6286      6285      6287      6285      6288      6279      6280
      6280      6282      6280      6281      6282      6283      6282      6284
      6282      6294      6294      6295      6294      6296      6294      6297
      6297      6298      6297      6299      6297      6300      6300      6301
      6300      6302      6300      6303      6303      6304      6303      6305
      6303      6306      6306      6307      6306      6308      6306      6309
      6309      6310      6309      6311      6309      6312      6312      6313
      6312      6314      6314      6315      6314      6316      6316      6317
      6316      6318      6316      6319      6319      6320      6319      6321
      6319      6322      6322      6323      6322      6324      6322      6325
      6325      6326      6325      6327      6325      6328      6328      6329
      6328      6330      6328      6331      6331      6332      6331      6333
      6331      6334      6334      6335      6334      6336      6334      6337
      6337      6338      6337      6339      6337      6340      6288      6289
      6289      6291      6289      6290      6291      6292      6291      6293
      6291      6341      6341      6342      6341      6343      6341      6344
      6344      6345      6344      6346      6344      6347      6347      6348
      6347      6349      6347      6350      6350      6351      6350      6352
      6350      6353      6353      6354      6353      6355      6353      6356
      6356      6357      6356      6358      6356      6359      6359      6360
      6359      6361      6359      6362      6362      6363      6362      6364
      6362      6365      6365      6366      6365      6367      6365      6368
      6368      6369      6368      6370      6368      6371      6371      6372
      6371      6373      6371      6374      6374      6375      6374      6376
      6374      6377      6377      6378      6377      6379      6377      6380
      6380      6381      6380      6382      6380      6383      6384      6385
      6384      6386      6384      6387      6384      6388      6392      6390
      6390      6388      6390      6391      6388      6389      6388      6393
      6401      6400      6393      6394      6393      6395      6393      6399
      6399      6396      6396      6400      6396      6397      6396      6398
      6401      6402      6401      6403      6401      6404      6404      6405
      6404      6412      6404      6406      6412      6413      6412      6414
      6412      6415      6406      6407      6407      6409      6407      6408
      6409      6410      6409      6411      6409      6421      6421      6422
      6421      6423      6421      6424      6424      6425      6424      6426
      6424      6427      6427      6428      6427      6429      6427      6430
      6430      6431      6430      6432      6430      6433      6433      6434
      6433      6435      6433      6436      6436      6437      6436      6438
      6436      6439      6439      6440      6439      6441      6441      6442
      6441      6443      6443      6444      6443      6445      6443      6446
      6446      6447      6446      6448      6446      6449      6449      6450
      6449      6451      6449      6452      6452      6453      6452      6454
      6452      6455      6455      6456      6455      6457      6455      6458
      6458      6459      6458      6460      6458      6461      6461      6462
      6461      6463      6461      6464      6464      6465      6464      6466
      6464      6467      6415      6416      6416      6418      6416      6417
      6418      6419      6418      6420      6418      6468      6468      6469
      6468      6470      6468      6471      6471      6472      6471      6473
      6471      6474      6474      6475      6474      6476      6474      6477
      6477      6478      6477      6479      6477      6480      6480      6481
      6480      6482      6480      6483      6483      6484      6483      6485
      6483      6486      6486      6487      6486      6488      6486      6489
      6489      6490      6489      6491      6489      6492      6492      6493
      6492      6494      6492      6495      6495      6496      6495      6497
      6495      6498      6498      6499      6498      6500      6498      6501
      6501      6502      6501      6503      6501      6504      6504      6505
      6504      6506      6504      6507      6507      6508      6507      6509
      6507      6510      6511      6512      6511      6513      6511      6514
      6511      6515      6519      6517      6517      6515      6517      6518
      6515      6516      6515      6520      6528      6527      6520      6521
      6520      6522      6520      6526      6526      6523      6523      6527
      6523      6524      6523      6525      6528      6529      6528      6530
      6528      6531      6531      6532      6531      6539      6531      6533
      6539      6540      6539      6541      6539      6542      6533      6534
      6534      6536      6534      6535      6536      6537      6536      6538
      6536      6548      6548      6549      6548      6550      6548      6551
      6551      6552      6551      6553      6551      6554      6554      6555
      6554      6556      6554      6557      6557      6558      6557      6559
      6557      6560      6560      6561      6560      6562      6560      6563
      6563      6564      6563      6565      6563      6566      6566      6567
      6566      6568      6568      6569      6568      6570      6570      6571
      6570      6572      6570      6573      6573      6574      6573      6575
      6573      6576      6576      6577      6576      6578      6576      6579
      6579      6580      6579      6581      6579      6582      6582      6583
      6582      6584      6582      6585      6585      6586      6585      6587
      6585      6588      6588      6589      6588      6590      6588      6591
      6591      6592      6591      6593      6591      6594      6542      6543
      6543      6545      6543      6544      6545      6546      6545      6547
      6545      6595      6595      6596      6595      6597      6595      6598
      6598      6599      6598      6600      6598      6601      6601      6602
      6601      6603      6601      6604      6604      6605      6604      6606
      6604      6607      6607      6608      6607      6609      6607      6610
      6610      6611      6610      6612      6610      6613      6613      6614
      6613      6615      6613      6616      6616      6617      6616      6618
      6616      6619      6619      6620      6619      6621      6619      6622
      6622      6623      6622      6624      6622      6625      6625      6626
      6625      6627      6625      6628      6628      6629      6628      6630
      6628      6631      6631      6632      6631      6633      6631      6634
      6634      6635      6634      6636      6634      6637      6638      6639
      6638      6640      6638      6641      6638      6642      6646      6644
      6644      6642      6644      6645      6642      6643      6642      6647
      6655      6654      6647      6648      6647      6649      6647      6653
      6653      6650      6650      6654      6650      6651      6650      6652
      6655      6656      6655      6657      6655      6658      6658      6659
      6658      6666      6658      6660      6666      6667      6666      6668
      6666      6669      6660      6661      6661      6663      6661      6662
      6663      6664      6663      6665      6663      6675      6675      6676
      6675      6677      6675      6678      6678      6679      6678      6680
      6678      6681      6681      6682      6681      6683      6681      6684
      6684      6685      6684      6686      6684      6687      6687      6688
      6687      6689      6687      6690      6690      6691      6690      6692
      6690      6693      6693      6694      6693      6695      6695      6696
      6695      6697      6697      6698      6697      6699      6697      6700
      6700      6701      6700      6702      6700      6703      6703      6704
      6703      6705      6703      6706      6706      6707      6706      6708
      6706      6709      6709      6710      6709      6711      6709      6712
      6712      6713      6712      6714      6712      6715      6715      6716
      6715      6717      6715      6718      6718      6719      6718      6720
      6718      6721      6669      6670      6670      6672      6670      6671
      6672      6673      6672      6674      6672      6722      6722      6723
      6722      6724      6722      6725      6725      6726      6725      6727
      6725      6728      6728      6729      6728      6730      6728      6731
      6731      6732      6731      6733      6731      6734      6734      6735
      6734      6736      6734      6737      6737      6738      6737      6739
      6737      6740      6740      6741      6740      6742      6740      6743
      6743      6744      6743      6745      6743      6746      6746      6747
      6746      6748      6746      6749      6749      6750      6749      6751
      6749      6752      6752      6753      6752      6754      6752      6755
      6755      6756      6755      6757      6755      6758      6758      6759
      6758      6760      6758      6761      6761      6762      6761      6763
      6761      6764      6765      6769      6765      6773      6765      6777
      6769      6770      6769      6771      6769      6772      6773      6774
      6773      6775      6773      6776      6777      6778      6777      6779
      6777      6780      6765      6766      6766      6767      6766      6768
      6766      6781      6781      6782      6781      6783      6781      6787
      6788      6789      6787      6784      6784      6788      6784      6785
      6784      6786      6789      6790      6789      6791      6789      6792
      6792      6793      6792      6800      6792      6794      6800      6801
      6800      6802      6800      6803      6794      6795      6795      6797
      6795      6796      6797      6798      6797      6799      6797      6809
      6809      6810      6809      6811      6809      6812      6812      6813
      6812      6814      6812      6815      6815      6816      6815      6817
      6815      6818      6818      6819      6818      6820      6818      6821
      6821      6822      6821      6823      6821      6824      6824      6825
      6824      6826      6824      6827      6827      6828      6827      6829
      6829      6830      6829      6831      6831      6832      6831      6833
      6831      6834      6834      6835      6834      6836      6834      6837
      6837      6838      6837      6839      6837      6840      6840      6841
      6840      6842      6840      6843      6843      6844      6843      6845
      6843      6846      6846      6847      6846      6848      6846      6849
      6849      6850      6849      6851      6849      6852      6852      6853
      6852      6854      6852      6855      6803      6804      6804      6806
      6804      6805      6806      6807      6806      6808      6806      6856
      6856      6857      6856      6858      6856      6859      6859      6860
      6859      6861      6859      6862      6862      6863      6862      6864
      6862      6865      6865      6866      6865      6867      6865      6868
      6868      6869      6868      6870      6868      6871      6871      6872
      6871      6873      6871      6874      6874      6875      6874      6876
      6874      6877      6877      6878      6877      6879      6877      6880
      6880      6881      6880      6882      6880      6883      6883      6884
      6883      6885      6883      6886      6886      6887      6886      6888
      6886      6889      6889      6890      6889      6891      6889      6892
      6892      6893      6892      6894      6892      6895      6895      6896
      6895      6897      6895      6898      6899      6903      6899      6907
      6899      6911      6903      6904      6903      6905      6903      6906
      6907      6908      6907      6909      6907      6910      6911      6912
      6911      6913      6911      6914      6899      6900      6900      6901
      6900      6902      6900      6915      6915      6916      6915      6917
      6915      6921      6922      6923      6921      6918      6918      6922
      6918      6919      6918      6920      6923      6924      6923      6925
      6923      6926      6926      6927      6926      6934      6926      6928
      6934      6935      6934      6936      6934      6937      6928      6929
      6929      6931      6929      6930      6931      6932      6931      6933
      6931      6943      6943      6944      6943      6945      6943      6946
      6946      6947      6946      6948      6946      6949      6949      6950
      6949      6951      6949      6952      6952      6953      6952      6954
      6952      6955      6955      6956      6955      6957      6955      6958
      6958      6959      6958      6960      6958      6961      6961      6962
      6961      6963      6963      6964      6963      6965      6965      6966
      6965      6967      6965      6968      6968      6969      6968      6970
      6968      6971      6971      6972      6971      6973      6971      6974
      6974      6975      6974      6976      6974      6977      6977      6978
      6977      6979      6977      6980      6980      6981      6980      6982
      6980      6983      6983      6984      6983      6985      6983      6986
      6986      6987      6986      6988      6986      6989      6937      6938
      6938      6940      6938      6939      6940      6941      6940      6942
      6940      6990      6990      6991      6990      6992      6990      6993
      6993      6994      6993      6995      6993      6996      6996      6997
      6996      6998      6996      6999      6999      7000      6999      7001
      6999      7002      7002      7003      7002      7004      7002      7005
      7005      7006      7005      7007      7005      7008      7008      7009
      7008      7010      7008      7011      7011      7012      7011      7013
      7011      7014      7014      7015      7014      7016      7014      7017
      7017      7018      7017      7019      7017      7020      7020      7021
      7020      7022      7020      7023      7023      7024      7023      7025
      7023      7026      7026      7027      7026      7028      7026      7029
      7029      7030      7029      7031      7029      7032      7033      7037
      7033      7041      7033      7045      7037      7038      7037      7039
      7037      7040      7041      7042      7041      7043      7041      7044
      7045      7046      7045      7047      7045      7048      7033      7034
      7034      7035      7034      7036      7034      7049      7049      7050
      7049      7051      7049      7055      7056      7057      7055      7052
      7052      7056      7052      7053      7052      7054      7057      7058
      7057      7059      7057      7060      7060      7061      7060      7068
      7060      7062      7068      7069      7068      7070      7068      7071
      7062      7063      7063      7065      7063      7064      7065      7066
      7065      7067      7065      7077      7077      7078      7077      7079
      7077      7080      7080      7081      7080      7082      7080      7083
      7083      7084      7083      7085      7083      7086      7086      7087
      7086      7088      7086      7089      7089      7090      7089      7091
      7089      7092      7092      7093      7092      7094      7092      7095
      7095      7096      7095      7097      7097      7098      7097      7099
      7099      7100      7099      7101      7099      7102      7102      7103
      7102      7104      7102      7105      7105      7106      7105      7107
      7105      7108      7108      7109      7108      7110      7108      7111
      7111      7112      7111      7113      7111      7114      7114      7115
      7114      7116      7114      7117      7117      7118      7117      7119
      7117      7120      7120      7121      7120      7122      7120      7123
      7071      7072      7072      7074      7072      7073      7074      7075
      7074      7076      7074      7124      7124      7125      7124      7126
      7124      7127      7127      7128      7127      7129      7127      7130
      7130      7131      7130      7132      7130      7133      7133      7134
      7133      7135      7133      7136      7136      7137      7136      7138
      7136      7139      7139      7140      7139      7141      7139      7142
      7142      7143      7142      7144      7142      7145      7145      7146
      7145      7147      7145      7148      7148      7149      7148      7150
      7148      7151      7151      7152      7151      7153      7151      7154
      7154      7155      7154      7156      7154      7157      7157      7158
      7157      7159      7157      7160      7160      7161      7160      7162
      7160      7163      7163      7164      7163      7165      7163      7166
      7167      7168      7167      7169      7167      7170      7167      7171
      7175      7173      7173      7171      7173      7174      7171      7172
      7171      7176      7184      7183      7176      7177      7176      7178
      7176      7182      7182      7179      7179      7183      7179      7180
      7179      7181      7184      7185      7184      7186      7184      7187
      7187      7188      7187      7195      7187      7189      7195      7196
      7195      7197      7195      7198      7189      7190      7190      7192
      7190      7191      7192      7193      7192      7194      7192      7204
      7204      7205      7204      7206      7204      7207      7207      7208
      7207      7209      7207      7210      7210      7211      7210      7212
      7210      7213      7213      7214      7213      7215      7213      7216
      7216      7217      7216      7218      7216      7219      7219      7220
      7219      7221      7219      7222      7222      7223      7222      7224
      7224      7225      7224      7226      7226      7227      7226      7228
      7226      7229      7229      7230      7229      7231      7229      7232
      7232      7233      7232      7234      7232      7235      7235      7236
      7235      7237      7235      7238      7238      7239      7238      7240
      7238      7241      7241      7242      7241      7243      7241      7244
      7244      7245      7244      7246      7244      7247      7247      7248
      7247      7249      7247      7250      7198      7199      7199      7201
      7199      7200      7201      7202      7201      7203      7201      7251
      7251      7252      7251      7253      7251      7254      7254      7255
      7254      7256      7254      7257      7257      7258      7257      7259
      7257      7260      7260      7261      7260      7262      7260      7263
      7263      7264      7263      7265      7263      7266      7266      7267
      7266      7268      7266      7269      7269      7270      7269      7271
      7269      7272      7272      7273      7272      7274      7272      7275
      7275      7276      7275      7277      7275      7278      7278      7279
      7278      7280      7278      7281      7281      7282      7281      7283
      7281      7284      7284      7285      7284      7286      7284      7287
      7287      7288      7287      7289      7287      7290      7290      7291
      7290      7292      7290      7293      7294      7298      7294      7302
      7294      7306      7298      7299      7298      7300      7298      7301
      7302      7303      7302      7304      7302      7305      7306      7307
      7306      7308      7306      7309      7294      7295      7295      7296
      7295      7297      7295      7310      7310      7311      7310      7312
      7310      7316      7317      7318      7316      7313      7313      7317
      7313      7314      7313      7315      7318      7319      7318      7320
      7318      7321      7321      7322      7321      7329      7321      7323
      7329      7330      7329      7331      7329      7332      7323      7324
      7324      7326      7324      7325      7326      7327      7326      7328
      7326      7338      7338      7339      7338      7340      7338      7341
      7341      7342      7341      7343      7341      7344      7344      7345
      7344      7346      7344      7347      7347      7348      7347      7349
      7347      7350      7350      7351      7350      7352      7350      7353
      7353      7354      7353      7355      7353      7356      7356      7357
      7356      7358      7358      7359      7358      7360      7360      7361
      7360      7362      7360      7363      7363      7364      7363      7365
      7363      7366      7366      7367      7366      7368      7366      7369
      7369      7370      7369      7371      7369      7372      7372      7373
      7372      7374      7372      7375      7375      7376      7375      7377
      7375      7378      7378      7379      7378      7380      7378      7381
      7381      7382      7381      7383      7381      7384      7332      7333
      7333      7335      7333      7334      7335      7336      7335      7337
      7335      7385      7385      7386      7385      7387      7385      7388
      7388      7389      7388      7390      7388      7391      7391      7392
      7391      7393      7391      7394      7394      7395      7394      7396
      7394      7397      7397      7398      7397      7399      7397      7400
      7400      7401      7400      7402      7400      7403      7403      7404
      7403      7405      7403      7406      7406      7407      7406      7408
      7406      7409      7409      7410      7409      7411      7409      7412
      7412      7413      7412      7414      7412      7415      7415      7416
      7415      7417      7415      7418      7418      7419      7418      7420
      7418      7421      7421      7422      7421      7423      7421      7424
      7424      7425      7424      7426      7424      7427      7428      7432
      7428      7436      7428      7440      7432      7433      7432      7434
      7432      7435      7436      7437      7436      7438      7436      7439
      7440      7441      7440      7442      7440      7443      7428      7429
      7429      7430      7429      7431      7429      7444      7444      7445
      7444      7446      7444      7450      7451      7452      7450      7447
      7447      7451      7447      7448      7447      7449      7452      7453
      7452      7454      7452      7455      7455      7456      7455      7463
      7455      7457      7463      7464      7463      7465      7463      7466
      7457      7458      7458      7460      7458      7459      7460      7461
      7460      7462      7460      7472      7472      7473      7472      7474
      7472      7475      7475      7476      7475      7477      7475      7478
      7478      7479      7478      7480      7478      7481      7481      7482
      7481      7483      7481      7484      7484      7485      7484      7486
      7484      7487      7487      7488      7487      7489      7487      7490
      7490      7491      7490      7492      7492      7493      7492      7494
      7494      7495      7494      7496      7494      7497      7497      7498
      7497      7499      7497      7500      7500      7501      7500      7502
      7500      7503      7503      7504      7503      7505      7503      7506
      7506      7507      7506      7508      7506      7509      7509      7510
      7509      7511      7509      7512      7512      7513      7512      7514
      7512      7515      7515      7516      7515      7517      7515      7518
      7466      7467      7467      7469      7467      7468      7469      7470
      7469      7471      7469      7519      7519      7520      7519      7521
      7519      7522      7522      7523      7522      7524      7522      7525
      7525      7526      7525      7527      7525      7528      7528      7529
      7528      7530      7528      7531      7531      7532      7531      7533
      7531      7534      7534      7535      7534      7536      7534      7537
      7537      7538      7537      7539      7537      7540      7540      7541
      7540      7542      7540      7543      7543      7544      7543      7545
      7543      7546      7546      7547      7546      7548      7546      7549
      7549      7550      7549      7551      7549      7552      7552      7553
      7552      7554      7552      7555      7555      7556      7555      7557
      7555      7558      7558      7559      7558      7560      7558      7561
      7562      7563      7562      7564      7562      7565      7562      7566
      7570      7568      7568      7566      7568      7569      7566      7567
      7566      7571      7579      7578      7571      7572      7571      7573
      7571      7577      7577      7574      7574      7578      7574      7575
      7574      7576      7579      7580      7579      7581      7579      7582
      7582      7583      7582      7590      7582      7584      7590      7591
      7590      7592      7590      7593      7584      7585      7585      7587
      7585      7586      7587      7588      7587      7589      7587      7599
      7599      7600      7599      7601      7599      7602      7602      7603
      7602      7604      7602      7605      7605      7606      7605      7607
      7605      7608      7608      7609      7608      7610      7608      7611
      7611      7612      7611      7613      7611      7614      7614      7615
      7614      7616      7614      7617      7617      7618      7617      7619
      7619      7620      7619      7621      7621      7622      7621      7623
      7621      7624      7624      7625      7624      7626      7624      7627
      7627      7628      7627      7629      7627      7630      7630      7631
      7630      7632      7630      7633      7633      7634      7633      7635
      7633      7636      7636      7637      7636      7638      7636      7639
      7639      7640      7639      7641      7639      7642      7642      7643
      7642      7644      7642      7645      7593      7594      7594      7596
      7594      7595      7596      7597      7596      7598      7596      7646
      7646      7647      7646      7648      7646      7649      7649      7650
      7649      7651      7649      7652      7652      7653      7652      7654
      7652      7655      7655      7656      7655      7657      7655      7658
      7658      7659      7658      7660      7658      7661      7661      7662
      7661      7663      7661      7664      7664      7665      7664      7666
      7664      7667      7667      7668      7667      7669      7667      7670
      7670      7671      7670      7672      7670      7673      7673      7674
      7673      7675      7673      7676      7676      7677      7676      7678
      7676      7679      7679      7680      7679      7681      7679      7682
      7682      7683      7682      7684      7682      7685      7685      7686
      7685      7687      7685      7688      7689      7693      7689      7697
      7689      7701      7693      7694      7693      7695      7693      7696
      7697      7698      7697      7699      7697      7700      7701      7702
      7701      7703      7701      7704      7689      7690      7690      7691
      7690      7692      7690      7705      7705      7706      7705      7707
      7705      7711      7712      7713      7711      7708      7708      7712
      7708      7709      7708      7710      7713      7714      7713      7715
      7713      7716      7716      7717      7716      7724      7716      7718
      7724      7725      7724      7726      7724      7727      7718      7719
      7719      7721      7719      7720      7721      7722      7721      7723
      7721      7733      7733      7734      7733      7735      7733      7736
      7736      7737      7736      7738      7736      7739      7739      7740
      7739      7741      7739      7742      7742      7743      7742      7744
      7742      7745      7745      7746      7745      7747      7745      7748
      7748      7749      7748      7750      7748      7751      7751      7752
      7751      7753      7753      7754      7753      7755      7755      7756
      7755      7757      7755      7758      7758      7759      7758      7760
      7758      7761      7761      7762      7761      7763      7761      7764
      7764      7765      7764      7766      7764      7767      7767      7768
      7767      7769      7767      7770      7770      7771      7770      7772
      7770      7773      7773      7774      7773      7775      7773      7776
      7776      7777      7776      7778      7776      7779      7727      7728
      7728      7730      7728      7729      7730      7731      7730      7732
      7730      7780      7780      7781      7780      7782      7780      7783
      7783      7784      7783      7785      7783      7786      7786      7787
      7786      7788      7786      7789      7789      7790      7789      7791
      7789      7792      7792      7793      7792      7794      7792      7795
      7795      7796      7795      7797      7795      7798      7798      7799
      7798      7800      7798      7801      7801      7802      7801      7803
      7801      7804      7804      7805      7804      7806      7804      7807
      7807      7808      7807      7809      7807      7810      7810      7811
      7810      7812      7810      7813      7813      7814      7813      7815
      7813      7816      7816      7817      7816      7818      7816      7819
      7819      7820      7819      7821      7819      7822      7823      7827
      7823      7831      7823      7835      7827      7828      7827      7829
      7827      7830      7831      7832      7831      7833      7831      7834
      7835      7836      7835      7837      7835      7838      7823      7824
      7824      7825      7824      7826      7824      7839      7839      7840
      7839      7841      7839      7845      7846      7847      7845      7842
      7842      7846      7842      7843      7842      7844      7847      7848
      7847      7849      7847      7850      7850      7851      7850      7858
      7850      7852      7858      7859      7858      7860      7858      7861
      7852      7853      7853      7855      7853      7854      7855      7856
      7855      7857      7855      7867      7867      7868      7867      7869
      7867      7870      7870      7871      7870      7872      7870      7873
      7873      7874      7873      7875      7873      7876      7876      7877
      7876      7878      7876      7879      7879      7880      7879      7881
      7879      7882      7882      7883      7882      7884      7882      7885
      7885      7886      7885      7887      7887      7888      7887      7889
      7889      7890      7889      7891      7889      7892      7892      7893
      7892      7894      7892      7895      7895      7896      7895      7897
      7895      7898      7898      7899      7898      7900      7898      7901
      7901      7902      7901      7903      7901      7904      7904      7905
      7904      7906      7904      7907      7907      7908      7907      7909
      7907      7910      7910      7911      7910      7912      7910      7913
      7861      7862      7862      7864      7862      7863      7864      7865
      7864      7866      7864      7914      7914      7915      7914      7916
      7914      7917      7917      7918      7917      7919      7917      7920
      7920      7921      7920      7922      7920      7923      7923      7924
      7923      7925      7923      7926      7926      7927      7926      7928
      7926      7929      7929      7930      7929      7931      7929      7932
      7932      7933      7932      7934      7932      7935      7935      7936
      7935      7937      7935      7938      7938      7939      7938      7940
      7938      7941      7941      7942      7941      7943      7941      7944
      7944      7945      7944      7946      7944      7947      7947      7948
      7947      7949      7947      7950      7950      7951      7950      7952
      7950      7953      7953      7954      7953      7955      7953      7956
      7957      7961      7957      7965      7957      7969      7961      7962
      7961      7963      7961      7964      7965      7966      7965      7967
      7965      7968      7969      7970      7969      7971      7969      7972
      7957      7958      7958      7959      7958      7960      7958      7973
      7973      7974      7973      7975      7973      7979      7980      7981
      7979      7976      7976      7980      7976      7977      7976      7978
      7981      7982      7981      7983      7981      7984      7984      7985
      7984      7992      7984      7986      7992      7993      7992      7994
      7992      7995      7986      7987      7987      7989      7987      7988
      7989      7990      7989      7991      7989      8001      8001      8002
      8001      8003      8001      8004      8004      8005      8004      8006
      8004      8007      8007      8008      8007      8009      8007      8010
      8010      8011      8010      8012      8010      8013      8013      8014
      8013      8015      8013      8016      8016      8017      8016      8018
      8016      8019      8019      8020      8019      8021      8021      8022
      8021      8023      8023      8024      8023      8025      8023      8026
      8026      8027      8026      8028      8026      8029      8029      8030
      8029      8031      8029      8032      8032      8033      8032      8034
      8032      8035      8035      8036      8035      8037      8035      8038
      8038      8039      8038      8040      8038      8041      8041      8042
      8041      8043      8041      8044      8044      8045      8044      8046
      8044      8047      7995      7996      7996      7998      7996      7997
      7998      7999      7998      8000      7998      8048      8048      8049
      8048      8050      8048      8051      8051      8052      8051      8053
      8051      8054      8054      8055      8054      8056      8054      8057
      8057      8058      8057      8059      8057      8060      8060      8061
      8060      8062      8060      8063      8063      8064      8063      8065
      8063      8066      8066      8067      8066      8068      8066      8069
      8069      8070      8069      8071      8069      8072      8072      8073
      8072      8074      8072      8075      8075      8076      8075      8077
      8075      8078      8078      8079      8078      8080      8078      8081
      8081      8082      8081      8083      8081      8084      8084      8085
      8084      8086      8084      8087      8087      8088      8087      8089
      8087      8090      8091      8095      8091      8099      8091      8103
      8095      8096      8095      8097      8095      8098      8099      8100
      8099      8101      8099      8102      8103      8104      8103      8105
      8103      8106      8091      8092      8092      8093      8092      8094
      8092      8107      8107      8108      8107      8109      8107      8113
      8114      8115      8113      8110      8110      8114      8110      8111
      8110      8112      8115      8116      8115      8117      8115      8118
      8118      8119      8118      8126      8118      8120      8126      8127
      8126      8128      8126      8129      8120      8121      8121      8123
      8121      8122      8123      8124      8123      8125      8123      8135
      8135      8136      8135      8137      8135      8138      8138      8139
      8138      8140      8138      8141      8141      8142      8141      8143
      8141      8144      8144      8145      8144      8146      8144      8147
      8147      8148      8147      8149      8147      8150      8150      8151
      8150      8152      8150      8153      8153      8154      8153      8155
      8155      8156      8155      8157      8157      8158      8157      8159
      8157      8160      8160      8161      8160      8162      8160      8163
      8163      8164      8163      8165      8163      8166      8166      8167
      8166      8168      8166      8169      8169      8170      8169      8171
      8169      8172      8172      8173      8172      8174      8172      8175
      8175      8176      8175      8177      8175      8178      8178      8179
      8178      8180      8178      8181      8129      8130      8130      8132
      8130      8131      8132      8133      8132      8134      8132      8182
      8182      8183      8182      8184      8182      8185      8185      8186
      8185      8187      8185      8188      8188      8189      8188      8190
      8188      8191      8191      8192      8191      8193      8191      8194
      8194      8195      8194      8196      8194      8197      8197      8198
      8197      8199      8197      8200      8200      8201      8200      8202
      8200      8203      8203      8204      8203      8205      8203      8206
      8206      8207      8206      8208      8206      8209      8209      8210
      8209      8211      8209      8212      8212      8213      8212      8214
      8212      8215      8215      8216      8215      8217      8215      8218
      8218      8219      8218      8220      8218      8221      8221      8222
      8221      8223      8221      8224      8225      8229      8225      8233
      8225      8237      8229      8230      8229      8231      8229      8232
      8233      8234      8233      8235      8233      8236      8237      8238
      8237      8239      8237      8240      8225      8226      8226      8227
      8226      8228      8226      8241      8241      8242      8241      8243
      8241      8247      8248      8249      8247      8244      8244      8248
      8244      8245      8244      8246      8249      8250      8249      8251
      8249      8252      8252      8253      8252      8260      8252      8254
      8260      8261      8260      8262      8260      8263      8254      8255
      8255      8257      8255      8256      8257      8258      8257      8259
      8257      8269      8269      8270      8269      8271      8269      8272
      8272      8273      8272      8274      8272      8275      8275      8276
      8275      8277      8275      8278      8278      8279      8278      8280
      8278      8281      8281      8282      8281      8283      8281      8284
      8284      8285      8284      8286      8284      8287      8287      8288
      8287      8289      8289      8290      8289      8291      8291      8292
      8291      8293      8291      8294      8294      8295      8294      8296
      8294      8297      8297      8298      8297      8299      8297      8300
      8300      8301      8300      8302      8300      8303      8303      8304
      8303      8305      8303      8306      8306      8307      8306      8308
      8306      8309      8309      8310      8309      8311      8309      8312
      8312      8313      8312      8314      8312      8315      8263      8264
      8264      8266      8264      8265      8266      8267      8266      8268
      8266      8316      8316      8317      8316      8318      8316      8319
      8319      8320      8319      8321      8319      8322      8322      8323
      8322      8324      8322      8325      8325      8326      8325      8327
      8325      8328      8328      8329      8328      8330      8328      8331
      8331      8332      8331      8333      8331      8334      8334      8335
      8334      8336      8334      8337      8337      8338      8337      8339
      8337      8340      8340      8341      8340      8342      8340      8343
      8343      8344      8343      8345      8343      8346      8346      8347
      8346      8348      8346      8349      8349      8350      8349      8351
      8349      8352      8352      8353      8352      8354      8352      8355
      8355      8356      8355      8357      8355      8358      8359      8360
      8359      8361      8359      8362      8359      8363      8367      8365
      8365      8363      8365      8366      8363      8364      8363      8368
      8376      8375      8368      8369      8368      8370      8368      8374
      8374      8371      8371      8375      8371      8372      8371      8373
      8376      8377      8376      8378      8376      8379      8379      8380
      8379      8387      8379      8381      8387      8388      8387      8389
      8387      8390      8381      8382      8382      8384      8382      8383
      8384      8385      8384      8386      8384      8396      8396      8397
      8396      8398      8396      8399      8399      8400      8399      8401
      8399      8402      8402      8403      8402      8404      8402      8405
      8405      8406      8405      8407      8405      8408      8408      8409
      8408      8410      8408      8411      8411      8412      8411      8413
      8411      8414      8414      8415      8414      8416      8416      8417
      8416      8418      8418      8419      8418      8420      8418      8421
      8421      8422      8421      8423      8421      8424      8424      8425
      8424      8426      8424      8427      8427      8428      8427      8429
      8427      8430      8430      8431      8430      8432      8430      8433
      8433      8434      8433      8435      8433      8436      8436      8437
      8436      8438      8436      8439      8439      8440      8439      8441
      8439      8442      8390      8391      8391      8393      8391      8392
      8393      8394      8393      8395      8393      8443      8443      8444
      8443      8445      8443      8446      8446      8447      8446      8448
      8446      8449      8449      8450      8449      8451      8449      8452
      8452      8453      8452      8454      8452      8455      8455      8456
      8455      8457      8455      8458      8458      8459      8458      8460
      8458      8461      8461      8462      8461      8463      8461      8464
      8464      8465      8464      8466      8464      8467      8467      8468
      8467      8469      8467      8470      8470      8471      8470      8472
      8470      8473      8473      8474      8473      8475      8473      8476
      8476      8477      8476      8478      8476      8479      8479      8480
      8479      8481      8479      8482      8482      8483      8482      8484
      8482      8485      8486      8490      8486      8494      8486      8498
      8490      8491      8490      8492      8490      8493      8494      8495
      8494      8496      8494      8497      8498      8499      8498      8500
      8498      8501      8486      8487      8487      8488      8487      8489
      8487      8502      8502      8503      8502      8504      8502      8508
      8509      8510      8508      8505      8505      8509      8505      8506
      8505      8507      8510      8511      8510      8512      8510      8513
      8513      8514      8513      8521      8513      8515      8521      8522
      8521      8523      8521      8524      8515      8516      8516      8518
      8516      8517      8518      8519      8518      8520      8518      8530
      8530      8531      8530      8532      8530      8533      8533      8534
      8533      8535      8533      8536      8536      8537      8536      8538
      8536      8539      8539      8540      8539      8541      8539      8542
      8542      8543      8542      8544      8542      8545      8545      8546
      8545      8547      8545      8548      8548      8549      8548      8550
      8550      8551      8550      8552      8552      8553      8552      8554
      8552      8555      8555      8556      8555      8557      8555      8558
      8558      8559      8558      8560      8558      8561      8561      8562
      8561      8563      8561      8564      8564      8565      8564      8566
      8564      8567      8567      8568      8567      8569      8567      8570
      8570      8571      8570      8572      8570      8573      8573      8574
      8573      8575      8573      8576      8524      8525      8525      8527
      8525      8526      8527      8528      8527      8529      8527      8577
      8577      8578      8577      8579      8577      8580      8580      8581
      8580      8582      8580      8583      8583      8584      8583      8585
      8583      8586      8586      8587      8586      8588      8586      8589
      8589      8590      8589      8591      8589      8592      8592      8593
      8592      8594      8592      8595      8595      8596      8595      8597
      8595      8598      8598      8599      8598      8600      8598      8601
      8601      8602      8601      8603      8601      8604      8604      8605
      8604      8606      8604      8607      8607      8608      8607      8609
      8607      8610      8610      8611      8610      8612      8610      8613
      8613      8614      8613      8615      8613      8616      8616      8617
      8616      8618      8616      8619      8620      8624      8620      8628
      8620      8632      8624      8625      8624      8626      8624      8627
      8628      8629      8628      8630      8628      8631      8632      8633
      8632      8634      8632      8635      8620      8621      8621      8622
      8621      8623      8621      8636      8636      8637      8636      8638
      8636      8642      8643      8644      8642      8639      8639      8643
      8639      8640      8639      8641      8644      8645      8644      8646
      8644      8647      8647      8648      8647      8655      8647      8649
      8655      8656      8655      8657      8655      8658      8649      8650
      8650      8652      8650      8651      8652      8653      8652      8654
      8652      8664      8664      8665      8664      8666      8664      8667
      8667      8668      8667      8669      8667      8670      8670      8671
      8670      8672      8670      8673      8673      8674      8673      8675
      8673      8676      8676      8677      8676      8678      8676      8679
      8679      8680      8679      8681      8679      8682      8682      8683
      8682      8684      8684      8685      8684      8686      8686      8687
      8686      8688      8686      8689      8689      8690      8689      8691
      8689      8692      8692      8693      8692      8694      8692      8695
      8695      8696      8695      8697      8695      8698      8698      8699
      8698      8700      8698      8701      8701      8702      8701      8703
      8701      8704      8704      8705      8704      8706      8704      8707
      8707      8708      8707      8709      8707      8710      8658      8659
      8659      8661      8659      8660      8661      8662      8661      8663
      8661      8711      8711      8712      8711      8713      8711      8714
      8714      8715      8714      8716      8714      8717      8717      8718
      8717      8719      8717      8720      8720      8721      8720      8722
      8720      8723      8723      8724      8723      8725      8723      8726
      8726      8727      8726      8728      8726      8729      8729      8730
      8729      8731      8729      8732      8732      8733      8732      8734
      8732      8735      8735      8736      8735      8737      8735      8738
      8738      8739      8738      8740      8738      8741      8741      8742
      8741      8743      8741      8744      8744      8745      8744      8746
      8744      8747      8747      8748      8747      8749      8747      8750
      8750      8751      8750      8752      8750      8753      8754      8758
      8754      8762      8754      8766      8758      8759      8758      8760
      8758      8761      8762      8763      8762      8764      8762      8765
      8766      8767      8766      8768      8766      8769      8754      8755
      8755      8756      8755      8757      8755      8770      8770      8771
      8770      8772      8770      8776      8777      8778      8776      8773
      8773      8777      8773      8774      8773      8775      8778      8779
      8778      8780      8778      8781      8781      8782      8781      8789
      8781      8783      8789      8790      8789      8791      8789      8792
      8783      8784      8784      8786      8784      8785      8786      8787
      8786      8788      8786      8798      8798      8799      8798      8800
      8798      8801      8801      8802      8801      8803      8801      8804
      8804      8805      8804      8806      8804      8807      8807      8808
      8807      8809      8807      8810      8810      8811      8810      8812
      8810      8813      8813      8814      8813      8815      8813      8816
      8816      8817      8816      8818      8818      8819      8818      8820
      8820      8821      8820      8822      8820      8823      8823      8824
      8823      8825      8823      8826      8826      8827      8826      8828
      8826      8829      8829      8830      8829      8831      8829      8832
      8832      8833      8832      8834      8832      8835      8835      8836
      8835      8837      8835      8838      8838      8839      8838      8840
      8838      8841      8841      8842      8841      8843      8841      8844
      8792      8793      8793      8795      8793      8794      8795      8796
      8795      8797      8795      8845      8845      8846      8845      8847
      8845      8848      8848      8849      8848      8850      8848      8851
      8851      8852      8851      8853      8851      8854      8854      8855
      8854      8856      8854      8857      8857      8858      8857      8859
      8857      8860      8860      8861      8860      8862      8860      8863
      8863      8864      8863      8865      8863      8866      8866      8867
      8866      8868      8866      8869      8869      8870      8869      8871
      8869      8872      8872      8873      8872      8874      8872      8875
      8875      8876      8875      8877      8875      8878      8878      8879
      8878      8880      8878      8881      8881      8882      8881      8883
      8881      8884      8884      8885      8884      8886      8884      8887
      8888      8889      8888      8890      8888      8891      8888      8892
      8896      8894      8894      8892      8894      8895      8892      8893
      8892      8897      8905      8904      8897      8898      8897      8899
      8897      8903      8903      8900      8900      8904      8900      8901
      8900      8902      8905      8906      8905      8907      8905      8908
      8908      8909      8908      8916      8908      8910      8916      8917
      8916      8918      8916      8919      8910      8911      8911      8913
      8911      8912      8913      8914      8913      8915      8913      8925
      8925      8926      8925      8927      8925      8928      8928      8929
      8928      8930      8928      8931      8931      8932      8931      8933
      8931      8934      8934      8935      8934      8936      8934      8937
      8937      8938      8937      8939      8937      8940      8940      8941
      8940      8942      8940      8943      8943      8944      8943      8945
      8945      8946      8945      8947      8947      8948      8947      8949
      8947      8950      8950      8951      8950      8952      8950      8953
      8953      8954      8953      8955      8953      8956      8956      8957
      8956      8958      8956      8959      8959      8960      8959      8961
      8959      8962      8962      8963      8962      8964      8962      8965
      8965      8966      8965      8967      8965      8968      8968      8969
      8968      8970      8968      8971      8919      8920      8920      8922
      8920      8921      8922      8923      8922      8924      8922      8972
      8972      8973      8972      8974      8972      8975      8975      8976
      8975      8977      8975      8978      8978      8979      8978      8980
      8978      8981      8981      8982      8981      8983      8981      8984
      8984      8985      8984      8986      8984      8987      8987      8988
      8987      8989      8987      8990      8990      8991      8990      8992
      8990      8993      8993      8994      8993      8995      8993      8996
      8996      8997      8996      8998      8996      8999      8999      9000
      8999      9001      8999      9002      9002      9003      9002      9004
      9002      9005      9005      9006      9005      9007      9005      9008
      9008      9009      9008      9010      9008      9011      9011      9012
      9011      9013      9011      9014      9015      9016      9015      9017
      9015      9018      9015      9019      9023      9021      9021      9019
      9021      9022      9019      9020      9019      9024      9032      9031
      9024      9025      9024      9026      9024      9030      9030      9027
      9027      9031      9027      9028      9027      9029      9032      9033
      9032      9034      9032      9035      9035      9036      9035      9043
      9035      9037      9043      9044      9043      9045      9043      9046
      9037      9038      9038      9040      9038      9039      9040      9041
      9040      9042      9040      9052      9052      9053      9052      9054
      9052      9055      9055      9056      9055      9057      9055      9058
      9058      9059      9058      9060      9058      9061      9061      9062
      9061      9063      9061      9064      9064      9065      9064      9066
      9064      9067      9067      9068      9067      9069      9067      9070
      9070      9071      9070      9072      9072      9073      9072      9074
      9074      9075      9074      9076      9074      9077      9077      9078
      9077      9079      9077      9080      9080      9081      9080      9082
      9080      9083      9083      9084      9083      9085      9083      9086
      9086      9087      9086      9088      9086      9089      9089      9090
      9089      9091      9089      9092      9092      9093      9092      9094
      9092      9095      9095      9096      9095      9097      9095      9098
      9046      9047      9047      9049      9047      9048      9049      9050
      9049      9051      9049      9099      9099      9100      9099      9101
      9099      9102      9102      9103      9102      9104      9102      9105
      9105      9106      9105      9107      9105      9108      9108      9109
      9108      9110      9108      9111      9111      9112      9111      9113
      9111      9114      9114      9115      9114      9116      9114      9117
      9117      9118      9117      9119      9117      9120      9120      9121
      9120      9122      9120      9123      9123      9124      9123      9125
      9123      9126      9126      9127      9126      9128      9126      9129
      9129      9130      9129      9131      9129      9132      9132      9133
      9132      9134      9132      9135      9135      9136      9135      9137
      9135      9138      9138      9139      9138      9140      9138      9141
      9142      9146      9142      9150      9142      9154      9146      9147
      9146      9148      9146      9149      9150      9151      9150      9152
      9150      9153      9154      9155      9154      9156      9154      9157
      9142      9143      9143      9144      9143      9145      9143      9158
      9158      9159      9158      9160      9158      9164      9165      9166
      9164      9161      9161      9165      9161      9162      9161      9163
      9166      9167      9166      9168      9166      9169      9169      9170
      9169      9177      9169      9171      9177      9178      9177      9179
      9177      9180      9171      9172      9172      9174      9172      9173
      9174      9175      9174      9176      9174      9186      9186      9187
      9186      9188      9186      9189      9189      9190      9189      9191
      9189      9192      9192      9193      9192      9194      9192      9195
      9195      9196      9195      9197      9195      9198      9198      9199
      9198      9200      9198      9201      9201      9202      9201      9203
      9201      9204      9204      9205      9204      9206      9206      9207
      9206      9208      9208      9209      9208      9210      9208      9211
      9211      9212      9211      9213      9211      9214      9214      9215
      9214      9216      9214      9217      9217      9218      9217      9219
      9217      9220      9220      9221      9220      9222      9220      9223
      9223      9224      9223      9225      9223      9226      9226      9227
      9226      9228      9226      9229      9229      9230      9229      9231
      9229      9232      9180      9181      9181      9183      9181      9182
      9183      9184      9183      9185      9183      9233      9233      9234
      9233      9235      9233      9236      9236      9237      9236      9238
      9236      9239      9239      9240      9239      9241      9239      9242
      9242      9243      9242      9244      9242      9245      9245      9246
      9245      9247      9245      9248      9248      9249      9248      9250
      9248      9251      9251      9252      9251      9253      9251      9254
      9254      9255      9254      9256      9254      9257      9257      9258
      9257      9259      9257      9260      9260      9261      9260      9262
      9260      9263      9263      9264      9263      9265      9263      9266
      9266      9267      9266      9268      9266      9269      9269      9270
      9269      9271      9269      9272      9272      9273      9272      9274
      9272      9275      9276      9280      9276      9284      9276      9288
      9280      9281      9280      9282      9280      9283      9284      9285
      9284      9286      9284      9287      9288      9289      9288      9290
      9288      9291      9276      9277      9277      9278      9277      9279
      9277      9292      9292      9293      9292      9294      9292      9298
      9299      9300      9298      9295      9295      9299      9295      9296
      9295      9297      9300      9301      9300      9302      9300      9303
      9303      9304      9303      9311      9303      9305      9311      9312
      9311      9313      9311      9314      9305      9306      9306      9308
      9306      9307      9308      9309      9308      9310      9308      9320
      9320      9321      9320      9322      9320      9323      9323      9324
      9323      9325      9323      9326      9326      9327      9326      9328
      9326      9329      9329      9330      9329      9331      9329      9332
      9332      9333      9332      9334      9332      9335      9335      9336
      9335      9337      9335      9338      9338      9339      9338      9340
      9340      9341      9340      9342      9342      9343      9342      9344
      9342      9345      9345      9346      9345      9347      9345      9348
      9348      9349      9348      9350      9348      9351      9351      9352
      9351      9353      9351      9354      9354      9355      9354      9356
      9354      9357      9357      9358      9357      9359      9357      9360
      9360      9361      9360      9362      9360      9363      9363      9364
      9363      9365      9363      9366      9314      9315      9315      9317
      9315      9316      9317      9318      9317      9319      9317      9367
      9367      9368      9367      9369      9367      9370      9370      9371
      9370      9372      9370      9373      9373      9374      9373      9375
      9373      9376      9376      9377      9376      9378      9376      9379
      9379      9380      9379      9381      9379      9382      9382      9383
      9382      9384      9382      9385      9385      9386      9385      9387
      9385      9388      9388      9389      9388      9390      9388      9391
      9391      9392      9391      9393      9391      9394      9394      9395
      9394      9396      9394      9397      9397      9398      9397      9399
      9397      9400      9400      9401      9400      9402      9400      9403
      9403      9404      9403      9405      9403      9406      9406      9407
      9406      9408      9406      9409      9410      9414      9410      9418
      9410      9422      9414      9415      9414      9416      9414      9417
      9418      9419      9418      9420      9418      9421      9422      9423
      9422      9424      9422      9425      9410      9411      9411      9412
      9411      9413      9411      9426      9426      9427      9426      9428
      9426      9432      9433      9434      9432      9429      9429      9433
      9429      9430      9429      9431      9434      9435      9434      9436
      9434      9437      9437      9438      9437      9445      9437      9439
      9445      9446      9445      9447      9445      9448      9439      9440
      9440      9442      9440      9441      9442      9443      9442      9444
      9442      9454      9454      9455      9454      9456      9454      9457
      9457      9458      9457      9459      9457      9460      9460      9461
      9460      9462      9460      9463      9463      9464      9463      9465
      9463      9466      9466      9467      9466      9468      9466      9469
      9469      9470      9469      9471      9469      9472      9472      9473
      9472      9474      9474      9475      9474      9476      9476      9477
      9476      9478      9476      9479      9479      9480      9479      9481
      9479      9482      9482      9483      9482      9484      9482      9485
      9485      9486      9485      9487      9485      9488      9488      9489
      9488      9490      9488      9491      9491      9492      9491      9493
      9491      9494      9494      9495      9494      9496      9494      9497
      9497      9498      9497      9499      9497      9500      9448      9449
      9449      9451      9449      9450      9451      9452      9451      9453
      9451      9501      9501      9502      9501      9503      9501      9504
      9504      9505      9504      9506      9504      9507      9507      9508
      9507      9509      9507      9510      9510      9511      9510      9512
      9510      9513      9513      9514      9513      9515      9513      9516
      9516      9517      9516      9518      9516      9519      9519      9520
      9519      9521      9519      9522      9522      9523      9522      9524
      9522      9525      9525      9526      9525      9527      9525      9528
      9528      9529      9528      9530      9528      9531      9531      9532
      9531      9533      9531      9534      9534      9535      9534      9536
      9534      9537      9537      9538      9537      9539      9537      9540
      9540      9541      9540      9542      9540      9543      9544      9548
      9544      9552      9544      9556      9548      9549      9548      9550
      9548      9551      9552      9553      9552      9554      9552      9555
      9556      9557      9556      9558      9556      9559      9544      9545
      9545      9546      9545      9547      9545      9560      9560      9561
      9560      9562      9560      9566      9567      9568      9566      9563
      9563      9567      9563      9564      9563      9565      9568      9569
      9568      9570      9568      9571      9571      9572      9571      9579
      9571      9573      9579      9580      9579      9581      9579      9582
      9573      9574      9574      9576      9574      9575      9576      9577
      9576      9578      9576      9588      9588      9589      9588      9590
      9588      9591      9591      9592      9591      9593      9591      9594
      9594      9595      9594      9596      9594      9597      9597      9598
      9597      9599      9597      9600      9600      9601      9600      9602
      9600      9603      9603      9604      9603      9605      9603      9606
      9606      9607      9606      9608      9608      9609      9608      9610
      9610      9611      9610      9612      9610      9613      9613      9614
      9613      9615      9613      9616      9616      9617      9616      9618
      9616      9619      9619      9620      9619      9621      9619      9622
      9622      9623      9622      9624      9622      9625      9625      9626
      9625      9627      9625      9628      9628      9629      9628      9630
      9628      9631      9631      9632      9631      9633      9631      9634
      9582      9583      9583      9585      9583      9584      9585      9586
      9585      9587      9585      9635      9635      9636      9635      9637
      9635      9638      9638      9639      9638      9640      9638      9641
      9641      9642      9641      9643      9641      9644      9644      9645
      9644      9646      9644      9647      9647      9648      9647      9649
      9647      9650      9650      9651      9650      9652      9650      9653
      9653      9654      9653      9655      9653      9656      9656      9657
      9656      9658      9656      9659      9659      9660      9659      9661
      9659      9662      9662      9663      9662      9664      9662      9665
      9665      9666      9665      9667      9665      9668      9668      9669
      9668      9670      9668      9671      9671      9672      9671      9673
      9671      9674      9674      9675      9674      9676      9674      9677
      9678      9682      9678      9686      9678      9690      9682      9683
      9682      9684      9682      9685      9686      9687      9686      9688
      9686      9689      9690      9691      9690      9692      9690      9693
      9678      9679      9679      9680      9679      9681      9679      9694
      9694      9695      9694      9696      9694      9700      9701      9702
      9700      9697      9697      9701      9697      9698      9697      9699
      9702      9703      9702      9704      9702      9705      9705      9706
      9705      9713      9705      9707      9713      9714      9713      9715
      9713      9716      9707      9708      9708      9710      9708      9709
      9710      9711      9710      9712      9710      9722      9722      9723
      9722      9724      9722      9725      9725      9726      9725      9727
      9725      9728      9728      9729      9728      9730      9728      9731
      9731      9732      9731      9733      9731      9734      9734      9735
      9734      9736      9734      9737      9737      9738      9737      9739
      9737      9740      9740      9741      9740      9742      9742      9743
      9742      9744      9744      9745      9744      9746      9744      9747
      9747      9748      9747      9749      9747      9750      9750      9751
      9750      9752      9750      9753      9753      9754      9753      9755
      9753      9756      9756      9757      9756      9758      9756      9759
      9759      9760      9759      9761      9759      9762      9762      9763
      9762      9764      9762      9765      9765      9766      9765      9767
      9765      9768      9716      9717      9717      9719      9717      9718
      9719      9720      9719      9721      9719      9769      9769      9770
      9769      9771      9769      9772      9772      9773      9772      9774
      9772      9775      9775      9776      9775      9777      9775      9778
      9778      9779      9778      9780      9778      9781      9781      9782
      9781      9783      9781      9784      9784      9785      9784      9786
      9784      9787      9787      9788      9787      9789      9787      9790
      9790      9791      9790      9792      9790      9793      9793      9794
      9793      9795      9793      9796      9796      9797      9796      9798
      9796      9799      9799      9800      9799      9801      9799      9802
      9802      9803      9802      9804      9802      9805      9805      9806
      9805      9807      9805      9808      9808      9809      9808      9810
      9808      9811      9812      9816      9812      9820      9812      9824
      9816      9817      9816      9818      9816      9819      9820      9821
      9820      9822      9820      9823      9824      9825      9824      9826
      9824      9827      9812      9813      9813      9814      9813      9815
      9813      9828      9828      9829      9828      9830      9828      9834
      9835      9836      9834      9831      9831      9835      9831      9832
      9831      9833      9836      9837      9836      9838      9836      9839
      9839      9840      9839      9847      9839      9841      9847      9848
      9847      9849      9847      9850      9841      9842      9842      9844
      9842      9843      9844      9845      9844      9846      9844      9856
      9856      9857      9856      9858      9856      9859      9859      9860
      9859      9861      9859      9862      9862      9863      9862      9864
      9862      9865      9865      9866      9865      9867      9865      9868
      9868      9869      9868      9870      9868      9871      9871      9872
      9871      9873      9871      9874      9874      9875      9874      9876
      9876      9877      9876      9878      9878      9879      9878      9880
      9878      9881      9881      9882      9881      9883      9881      9884
      9884      9885      9884      9886      9884      9887      9887      9888
      9887      9889      9887      9890      9890      9891      9890      9892
      9890      9893      9893      9894      9893      9895      9893      9896
      9896      9897      9896      9898      9896      9899      9899      9900
      9899      9901      9899      9902      9850      9851      9851      9853
      9851      9852      9853      9854      9853      9855      9853      9903
      9903      9904      9903      9905      9903      9906      9906      9907
      9906      9908      9906      9909      9909      9910      9909      9911
      9909      9912      9912      9913      9912      9914      9912      9915
      9915      9916      9915      9917      9915      9918      9918      9919
      9918      9920      9918      9921      9921      9922      9921      9923
      9921      9924      9924      9925      9924      9926      9924      9927
      9927      9928      9927      9929      9927      9930      9930      9931
      9930      9932      9930      9933      9933      9934      9933      9935
      9933      9936      9936      9937      9936      9938      9936      9939
      9939      9940      9939      9941      9939      9942      9942      9943
      9942      9944      9942      9945      9946      9947      9946      9948
      9946      9949      9946      9950      9954      9952      9952      9950
      9952      9953      9950      9951      9950      9955      9963      9962
      9955      9956      9955      9957      9955      9961      9961      9958
      9958      9962      9958      9959      9958      9960      9963      9964
      9963      9965      9963      9966      9966      9967      9966      9974
      9966      9968      9974      9975      9974      9976      9974      9977
      9968      9969      9969      9971      9969      9970      9971      9972
      9971      9973      9971      9983      9983      9984      9983      9985
      9983      9986      9986      9987      9986      9988      9986      9989
      9989      9990      9989      9991      9989      9992      9992      9993
      9992      9994      9992      9995      9995      9996      9995      9997
      9995      9998      9998      9999      9998     10000      9998     10001
     10001     10002     10001     10003     10003     10004     10003     10005
     10005     10006     10005     10007     10005     10008     10008     10009
     10008     10010     10008     10011     10011     10012     10011     10013
     10011     10014     10014     10015     10014     10016     10014     10017
     10017     10018     10017     10019     10017     10020     10020     10021
     10020     10022     10020     10023     10023     10024     10023     10025
     10023     10026     10026     10027     10026     10028     10026     10029
      9977      9978      9978      9980      9978      9979      9980      9981
      9980      9982      9980     10030     10030     10031     10030     10032
     10030     10033     10033     10034     10033     10035     10033     10036
     10036     10037     10036     10038     10036     10039     10039     10040
     10039     10041     10039     10042     10042     10043     10042     10044
     10042     10045     10045     10046     10045     10047     10045     10048
     10048     10049     10048     10050     10048     10051     10051     10052
     10051     10053     10051     10054     10054     10055     10054     10056
     10054     10057     10057     10058     10057     10059     10057     10060
     10060     10061     10060     10062     10060     10063     10063     10064
     10063     10065     10063     10066     10066     10067     10066     10068
     10066     10069     10069     10070     10069     10071     10069     10072
     10073     10077     10073     10081     10073     10085     10077     10078
     10077     10079     10077     10080     10081     10082     10081     10083
     10081     10084     10085     10086     10085     10087     10085     10088
     10073     10074     10074     10075     10074     10076     10074     10089
     10089     10090     10089     10091     10089     10095     10096     10097
     10095     10092     10092     10096     10092     10093     10092     10094
     10097     10098     10097     10099     10097     10100     10100     10101
     10100     10108     10100     10102     10108     10109     10108     10110
     10108     10111     10102     10103     10103     10105     10103     10104
     10105     10106     10105     10107     10105     10117     10117     10118
     10117     10119     10117     10120     10120     10121     10120     10122
     10120     10123     10123     10124     10123     10125     10123     10126
     10126     10127     10126     10128     10126     10129     10129     10130
     10129     10131     10129     10132     10132     10133     10132     10134
     10132     10135     10135     10136     10135     10137     10137     10138
     10137     10139     10139     10140     10139     10141     10139     10142
     10142     10143     10142     10144     10142     10145     10145     10146
     10145     10147     10145     10148     10148     10149     10148     10150
     10148     10151     10151     10152     10151     10153     10151     10154
     10154     10155     10154     10156     10154     10157     10157     10158
     10157     10159     10157     10160     10160     10161     10160     10162
     10160     10163     10111     10112     10112     10114     10112     10113
     10114     10115     10114     10116     10114     10164     10164     10165
     10164     10166     10164     10167     10167     10168     10167     10169
     10167     10170     10170     10171     10170     10172     10170     10173
     10173     10174     10173     10175     10173     10176     10176     10177
     10176     10178     10176     10179     10179     10180     10179     10181
     10179     10182     10182     10183     10182     10184     10182     10185
     10185     10186     10185     10187     10185     10188     10188     10189
     10188     10190     10188     10191     10191     10192     10191     10193
     10191     10194     10194     10195     10194     10196     10194     10197
     10197     10198     10197     10199     10197     10200     10200     10201
     10200     10202     10200     10203     10203     10204     10203     10205
     10203     10206     10207     10208     10207     10209     10207     10210
     10207     10211     10215     10213     10213     10211     10213     10214
     10211     10212     10211     10216     10224     10223     10216     10217
     10216     10218     10216     10222     10222     10219     10219     10223
     10219     10220     10219     10221     10224     10225     10224     10226
     10224     10227     10227     10228     10227     10235     10227     10229
     10235     10236     10235     10237     10235     10238     10229     10230
     10230     10232     10230     10231     10232     10233     10232     10234
     10232     10244     10244     10245     10244     10246     10244     10247
     10247     10248     10247     10249     10247     10250     10250     10251
     10250     10252     10250     10253     10253     10254     10253     10255
     10253     10256     10256     10257     10256     10258     10256     10259
     10259     10260     10259     10261     10259     10262     10262     10263
     10262     10264     10264     10265     10264     10266     10266     10267
     10266     10268     10266     10269     10269     10270     10269     10271
     10269     10272     10272     10273     10272     10274     10272     10275
     10275     10276     10275     10277     10275     10278     10278     10279
     10278     10280     10278     10281     10281     10282     10281     10283
     10281     10284     10284     10285     10284     10286     10284     10287
     10287     10288     10287     10289     10287     10290     10238     10239
     10239     10241     10239     10240     10241     10242     10241     10243
     10241     10291     10291     10292     10291     10293     10291     10294
     10294     10295     10294     10296     10294     10297     10297     10298
     10297     10299     10297     10300     10300     10301     10300     10302
     10300     10303     10303     10304     10303     10305     10303     10306
     10306     10307     10306     10308     10306     10309     10309     10310
     10309     10311     10309     10312     10312     10313     10312     10314
     10312     10315     10315     10316     10315     10317     10315     10318
     10318     10319     10318     10320     10318     10321     10321     10322
     10321     10323     10321     10324     10324     10325     10324     10326
     10324     10327     10327     10328     10327     10329     10327     10330
     10330     10331     10330     10332     10330     10333     10334     10335
     10334     10336     10334     10337     10334     10338     10342     10340
     10340     10338     10340     10341     10338     10339     10338     10343
     10351     10350     10343     10344     10343     10345     10343     10349
     10349     10346     10346     10350     10346     10347     10346     10348
     10351     10352     10351     10353     10351     10354     10354     10355
     10354     10362     10354     10356     10362     10363     10362     10364
     10362     10365     10356     10357     10357     10359     10357     10358
     10359     10360     10359     10361     10359     10371     10371     10372
     10371     10373     10371     10374     10374     10375     10374     10376
     10374     10377     10377     10378     10377     10379     10377     10380
     10380     10381     10380     10382     10380     10383     10383     10384
     10383     10385     10383     10386     10386     10387     10386     10388
     10386     10389     10389     10390     10389     10391     10391     10392
     10391     10393     10393     10394     10393     10395     10393     10396
     10396     10397     10396     10398     10396     10399     10399     10400
     10399     10401     10399     10402     10402     10403     10402     10404
     10402     10405     10405     10406     10405     10407     10405     10408
     10408     10409     10408     10410     10408     10411     10411     10412
     10411     10413     10411     10414     10414     10415     10414     10416
     10414     10417     10365     10366     10366     10368     10366     10367
     10368     10369     10368     10370     10368     10418     10418     10419
     10418     10420     10418     10421     10421     10422     10421     10423
     10421     10424     10424     10425     10424     10426     10424     10427
     10427     10428     10427     10429     10427     10430     10430     10431
     10430     10432     10430     10433     10433     10434     10433     10435
     10433     10436     10436     10437     10436     10438     10436     10439
     10439     10440     10439     10441     10439     10442     10442     10443
     10442     10444     10442     10445     10445     10446     10445     10447
     10445     10448     10448     10449     10448     10450     10448     10451
     10451     10452     10451     10453     10451     10454     10454     10455
     10454     10456     10454     10457     10457     10458     10457     10459
     10457     10460     10461     10465     10461     10469     10461     10473
     10465     10466     10465     10467     10465     10468     10469     10470
     10469     10471     10469     10472     10473     10474     10473     10475
     10473     10476     10461     10462     10462     10463     10462     10464
     10462     10477     10477     10478     10477     10479     10477     10483
     10484     10485     10483     10480     10480     10484     10480     10481
     10480     10482     10485     10486     10485     10487     10485     10488
     10488     10489     10488     10496     10488     10490     10496     10497
     10496     10498     10496     10499     10490     10491     10491     10493
     10491     10492     10493     10494     10493     10495     10493     10505
     10505     10506     10505     10507     10505     10508     10508     10509
     10508     10510     10508     10511     10511     10512     10511     10513
     10511     10514     10514     10515     10514     10516     10514     10517
     10517     10518     10517     10519     10517     10520     10520     10521
     10520     10522     10520     10523     10523     10524     10523     10525
     10525     10526     10525     10527     10527     10528     10527     10529
     10527     10530     10530     10531     10530     10532     10530     10533
     10533     10534     10533     10535     10533     10536     10536     10537
     10536     10538     10536     10539     10539     10540     10539     10541
     10539     10542     10542     10543     10542     10544     10542     10545
     10545     10546     10545     10547     10545     10548     10548     10549
     10548     10550     10548     10551     10499     10500     10500     10502
     10500     10501     10502     10503     10502     10504     10502     10552
     10552     10553     10552     10554     10552     10555     10555     10556
     10555     10557     10555     10558     10558     10559     10558     10560
     10558     10561     10561     10562     10561     10563     10561     10564
     10564     10565     10564     10566     10564     10567     10567     10568
     10567     10569     10567     10570     10570     10571     10570     10572
     10570     10573     10573     10574     10573     10575     10573     10576
     10576     10577     10576     10578     10576     10579     10579     10580
     10579     10581     10579     10582     10582     10583     10582     10584
     10582     10585     10585     10586     10585     10587     10585     10588
     10588     10589     10588     10590     10588     10591     10591     10592
     10591     10593     10591     10594     10595     10599     10595     10603
     10595     10607     10599     10600     10599     10601     10599     10602
     10603     10604     10603     10605     10603     10606     10607     10608
     10607     10609     10607     10610     10595     10596     10596     10597
     10596     10598     10596     10611     10611     10612     10611     10613
     10611     10617     10618     10619     10617     10614     10614     10618
     10614     10615     10614     10616     10619     10620     10619     10621
     10619     10622     10622     10623     10622     10630     10622     10624
     10630     10631     10630     10632     10630     10633     10624     10625
     10625     10627     10625     10626     10627     10628     10627     10629
     10627     10639     10639     10640     10639     10641     10639     10642
     10642     10643     10642     10644     10642     10645     10645     10646
     10645     10647     10645     10648     10648     10649     10648     10650
     10648     10651     10651     10652     10651     10653     10651     10654
     10654     10655     10654     10656     10654     10657     10657     10658
     10657     10659     10659     10660     10659     10661     10661     10662
     10661     10663     10661     10664     10664     10665     10664     10666
     10664     10667     10667     10668     10667     10669     10667     10670
     10670     10671     10670     10672     10670     10673     10673     10674
     10673     10675     10673     10676     10676     10677     10676     10678
     10676     10679     10679     10680     10679     10681     10679     10682
     10682     10683     10682     10684     10682     10685     10633     10634
     10634     10636     10634     10635     10636     10637     10636     10638
     10636     10686     10686     10687     10686     10688     10686     10689
     10689     10690     10689     10691     10689     10692     10692     10693
     10692     10694     10692     10695     10695     10696     10695     10697
     10695     10698     10698     10699     10698     10700     10698     10701
     10701     10702     10701     10703     10701     10704     10704     10705
     10704     10706     10704     10707     10707     10708     10707     10709
     10707     10710     10710     10711     10710     10712     10710     10713
     10713     10714     10713     10715     10713     10716     10716     10717
     10716     10718     10716     10719     10719     10720     10719     10721
     10719     10722     10722     10723     10722     10724     10722     10725
     10725     10726     10725     10727     10725     10728     10729     10730
     10729     10731     10729     10732     10729     10733     10737     10735
     10735     10733     10735     10736     10733     10734     10733     10738
     10746     10745     10738     10739     10738     10740     10738     10744
     10744     10741     10741     10745     10741     10742     10741     10743
     10746     10747     10746     10748     10746     10749     10749     10750
     10749     10757     10749     10751     10757     10758     10757     10759
     10757     10760     10751     10752     10752     10754     10752     10753
     10754     10755     10754     10756     10754     10766     10766     10767
     10766     10768     10766     10769     10769     10770     10769     10771
     10769     10772     10772     10773     10772     10774     10772     10775
     10775     10776     10775     10777     10775     10778     10778     10779
     10778     10780     10778     10781     10781     10782     10781     10783
     10781     10784     10784     10785     10784     10786     10786     10787
     10786     10788     10788     10789     10788     10790     10788     10791
     10791     10792     10791     10793     10791     10794     10794     10795
     10794     10796     10794     10797     10797     10798     10797     10799
     10797     10800     10800     10801     10800     10802     10800     10803
     10803     10804     10803     10805     10803     10806     10806     10807
     10806     10808     10806     10809     10809     10810     10809     10811
     10809     10812     10760     10761     10761     10763     10761     10762
     10763     10764     10763     10765     10763     10813     10813     10814
     10813     10815     10813     10816     10816     10817     10816     10818
     10816     10819     10819     10820     10819     10821     10819     10822
     10822     10823     10822     10824     10822     10825     10825     10826
     10825     10827     10825     10828     10828     10829     10828     10830
     10828     10831     10831     10832     10831     10833     10831     10834
     10834     10835     10834     10836     10834     10837     10837     10838
     10837     10839     10837     10840     10840     10841     10840     10842
     10840     10843     10843     10844     10843     10845     10843     10846
     10846     10847     10846     10848     10846     10849     10849     10850
     10849     10851     10849     10852     10852     10853     10852     10854
     10852     10855     10856     10860     10856     10864     10856     10868
     10860     10861     10860     10862     10860     10863     10864     10865
     10864     10866     10864     10867     10868     10869     10868     10870
     10868     10871     10856     10857     10857     10858     10857     10859
     10857     10872     10872     10873     10872     10874     10872     10878
     10879     10880     10878     10875     10875     10879     10875     10876
     10875     10877     10880     10881     10880     10882     10880     10883
     10883     10884     10883     10891     10883     10885     10891     10892
     10891     10893     10891     10894     10885     10886     10886     10888
     10886     10887     10888     10889     10888     10890     10888     10900
     10900     10901     10900     10902     10900     10903     10903     10904
     10903     10905     10903     10906     10906     10907     10906     10908
     10906     10909     10909     10910     10909     10911     10909     10912
     10912     10913     10912     10914     10912     10915     10915     10916
     10915     10917     10915     10918     10918     10919     10918     10920
     10920     10921     10920     10922     10922     10923     10922     10924
     10922     10925     10925     10926     10925     10927     10925     10928
     10928     10929     10928     10930     10928     10931     10931     10932
     10931     10933     10931     10934     10934     10935     10934     10936
     10934     10937     10937     10938     10937     10939     10937     10940
     10940     10941     10940     10942     10940     10943     10943     10944
     10943     10945     10943     10946     10894     10895     10895     10897
     10895     10896     10897     10898     10897     10899     10897     10947
     10947     10948     10947     10949     10947     10950     10950     10951
     10950     10952     10950     10953     10953     10954     10953     10955
     10953     10956     10956     10957     10956     10958     10956     10959
     10959     10960     10959     10961     10959     10962     10962     10963
     10962     10964     10962     10965     10965     10966     10965     10967
     10965     10968     10968     10969     10968     10970     10968     10971
     10971     10972     10971     10973     10971     10974     10974     10975
     10974     10976     10974     10977     10977     10978     10977     10979
     10977     10980     10980     10981     10980     10982     10980     10983
     10983     10984     10983     10985     10983     10986     10986     10987
     10986     10988     10986     10989     10990     10994     10990     10998
     10990     11002     10994     10995     10994     10996     10994     10997
     10998     10999     10998     11000     10998     11001     11002     11003
     11002     11004     11002     11005     10990     10991     10991     10992
     10991     10993     10991     11006     11006     11007     11006     11008
     11006     11012     11013     11014     11012     11009     11009     11013
     11009     11010     11009     11011     11014     11015     11014     11016
     11014     11017     11017     11018     11017     11025     11017     11019
     11025     11026     11025     11027     11025     11028     11019     11020
     11020     11022     11020     11021     11022     11023     11022     11024
     11022     11034     11034     11035     11034     11036     11034     11037
     11037     11038     11037     11039     11037     11040     11040     11041
     11040     11042     11040     11043     11043     11044     11043     11045
     11043     11046     11046     11047     11046     11048     11046     11049
     11049     11050     11049     11051     11049     11052     11052     11053
     11052     11054     11054     11055     11054     11056     11056     11057
     11056     11058     11056     11059     11059     11060     11059     11061
     11059     11062     11062     11063     11062     11064     11062     11065
     11065     11066     11065     11067     11065     11068     11068     11069
     11068     11070     11068     11071     11071     11072     11071     11073
     11071     11074     11074     11075     11074     11076     11074     11077
     11077     11078     11077     11079     11077     11080     11028     11029
     11029     11031     11029     11030     11031     11032     11031     11033
     11031     11081     11081     11082     11081     11083     11081     11084
     11084     11085     11084     11086     11084     11087     11087     11088
     11087     11089     11087     11090     11090     11091     11090     11092
     11090     11093     11093     11094     11093     11095     11093     11096
     11096     11097     11096     11098     11096     11099     11099     11100
     11099     11101     11099     11102     11102     11103     11102     11104
     11102     11105     11105     11106     11105     11107     11105     11108
     11108     11109     11108     11110     11108     11111     11111     11112
     11111     11113     11111     11114     11114     11115     11114     11116
     11114     11117     11117     11118     11117     11119     11117     11120
     11120     11121     11120     11122     11120     11123     11124     11128
     11124     11132     11124     11136     11128     11129     11128     11130
     11128     11131     11132     11133     11132     11134     11132     11135
     11136     11137     11136     11138     11136     11139     11124     11125
     11125     11126     11125     11127     11125     11140     11140     11141
     11140     11142     11140     11146     11147     11148     11146     11143
     11143     11147     11143     11144     11143     11145     11148     11149
     11148     11150     11148     11151     11151     11152     11151     11159
     11151     11153     11159     11160     11159     11161     11159     11162
     11153     11154     11154     11156     11154     11155     11156     11157
     11156     11158     11156     11168     11168     11169     11168     11170
     11168     11171     11171     11172     11171     11173     11171     11174
     11174     11175     11174     11176     11174     11177     11177     11178
     11177     11179     11177     11180     11180     11181     11180     11182
     11180     11183     11183     11184     11183     11185     11183     11186
     11186     11187     11186     11188     11188     11189     11188     11190
     11190     11191     11190     11192     11190     11193     11193     11194
     11193     11195     11193     11196     11196     11197     11196     11198
     11196     11199     11199     11200     11199     11201     11199     11202
     11202     11203     11202     11204     11202     11205     11205     11206
     11205     11207     11205     11208     11208     11209     11208     11210
     11208     11211     11211     11212     11211     11213     11211     11214
     11162     11163     11163     11165     11163     11164     11165     11166
     11165     11167     11165     11215     11215     11216     11215     11217
     11215     11218     11218     11219     11218     11220     11218     11221
     11221     11222     11221     11223     11221     11224     11224     11225
     11224     11226     11224     11227     11227     11228     11227     11229
     11227     11230     11230     11231     11230     11232     11230     11233
     11233     11234     11233     11235     11233     11236     11236     11237
     11236     11238     11236     11239     11239     11240     11239     11241
     11239     11242     11242     11243     11242     11244     11242     11245
     11245     11246     11245     11247     11245     11248     11248     11249
     11248     11250     11248     11251     11251     11252     11251     11253
     11251     11254     11254     11255     11254     11256     11254     11257
     11258     11259     11258     11260     11258     11261     11258     11262
     11266     11264     11264     11262     11264     11265     11262     11263
     11262     11267     11275     11274     11267     11268     11267     11269
     11267     11273     11273     11270     11270     11274     11270     11271
     11270     11272     11275     11276     11275     11277     11275     11278
     11278     11279     11278     11286     11278     11280     11286     11287
     11286     11288     11286     11289     11280     11281     11281     11283
     11281     11282     11283     11284     11283     11285     11283     11295
     11295     11296     11295     11297     11295     11298     11298     11299
     11298     11300     11298     11301     11301     11302     11301     11303
     11301     11304     11304     11305     11304     11306     11304     11307
     11307     11308     11307     11309     11307     11310     11310     11311
     11310     11312     11310     11313     11313     11314     11313     11315
     11315     11316     11315     11317     11317     11318     11317     11319
     11317     11320     11320     11321     11320     11322     11320     11323
     11323     11324     11323     11325     11323     11326     11326     11327
     11326     11328     11326     11329     11329     11330     11329     11331
     11329     11332     11332     11333     11332     11334     11332     11335
     11335     11336     11335     11337     11335     11338     11338     11339
     11338     11340     11338     11341     11289     11290     11290     11292
     11290     11291     11292     11293     11292     11294     11292     11342
     11342     11343     11342     11344     11342     11345     11345     11346
     11345     11347     11345     11348     11348     11349     11348     11350
     11348     11351     11351     11352     11351     11353     11351     11354
     11354     11355     11354     11356     11354     11357     11357     11358
     11357     11359     11357     11360     11360     11361     11360     11362
     11360     11363     11363     11364     11363     11365     11363     11366
     11366     11367     11366     11368     11366     11369     11369     11370
     11369     11371     11369     11372     11372     11373     11372     11374
     11372     11375     11375     11376     11375     11377     11375     11378
     11378     11379     11378     11380     11378     11381     11381     11382
     11381     11383     11381     11384     11385     11389     11385     11393
     11385     11397     11389     11390     11389     11391     11389     11392
     11393     11394     11393     11395     11393     11396     11397     11398
     11397     11399     11397     11400     11385     11386     11386     11387
     11386     11388     11386     11401     11401     11402     11401     11403
     11401     11407     11408     11409     11407     11404     11404     11408
     11404     11405     11404     11406     11409     11410     11409     11411
     11409     11412     11412     11413     11412     11420     11412     11414
     11420     11421     11420     11422     11420     11423     11414     11415
     11415     11417     11415     11416     11417     11418     11417     11419
     11417     11429     11429     11430     11429     11431     11429     11432
     11432     11433     11432     11434     11432     11435     11435     11436
     11435     11437     11435     11438     11438     11439     11438     11440
     11438     11441     11441     11442     11441     11443     11441     11444
     11444     11445     11444     11446     11444     11447     11447     11448
     11447     11449     11449     11450     11449     11451     11451     11452
     11451     11453     11451     11454     11454     11455     11454     11456
     11454     11457     11457     11458     11457     11459     11457     11460
     11460     11461     11460     11462     11460     11463     11463     11464
     11463     11465     11463     11466     11466     11467     11466     11468
     11466     11469     11469     11470     11469     11471     11469     11472
     11472     11473     11472     11474     11472     11475     11423     11424
     11424     11426     11424     11425     11426     11427     11426     11428
     11426     11476     11476     11477     11476     11478     11476     11479
     11479     11480     11479     11481     11479     11482     11482     11483
     11482     11484     11482     11485     11485     11486     11485     11487
     11485     11488     11488     11489     11488     11490     11488     11491
     11491     11492     11491     11493     11491     11494     11494     11495
     11494     11496     11494     11497     11497     11498     11497     11499
     11497     11500     11500     11501     11500     11502     11500     11503
     11503     11504     11503     11505     11503     11506     11506     11507
     11506     11508     11506     11509     11509     11510     11509     11511
     11509     11512     11512     11513     11512     11514     11512     11515
     11515     11516     11515     11517     11515     11518     11519     11523
     11519     11527     11519     11531     11523     11524     11523     11525
     11523     11526     11527     11528     11527     11529     11527     11530
     11531     11532     11531     11533     11531     11534     11519     11520
     11520     11521     11520     11522     11520     11535     11535     11536
     11535     11537     11535     11541     11542     11543     11541     11538
     11538     11542     11538     11539     11538     11540     11543     11544
     11543     11545     11543     11546     11546     11547     11546     11554
     11546     11548     11554     11555     11554     11556     11554     11557
     11548     11549     11549     11551     11549     11550     11551     11552
     11551     11553     11551     11563     11563     11564     11563     11565
     11563     11566     11566     11567     11566     11568     11566     11569
     11569     11570     11569     11571     11569     11572     11572     11573
     11572     11574     11572     11575     11575     11576     11575     11577
     11575     11578     11578     11579     11578     11580     11578     11581
     11581     11582     11581     11583     11583     11584     11583     11585
     11585     11586     11585     11587     11585     11588     11588     11589
     11588     11590     11588     11591     11591     11592     11591     11593
     11591     11594     11594     11595     11594     11596     11594     11597
     11597     11598     11597     11599     11597     11600     11600     11601
     11600     11602     11600     11603     11603     11604     11603     11605
     11603     11606     11606     11607     11606     11608     11606     11609
     11557     11558     11558     11560     11558     11559     11560     11561
     11560     11562     11560     11610     11610     11611     11610     11612
     11610     11613     11613     11614     11613     11615     11613     11616
     11616     11617     11616     11618     11616     11619     11619     11620
     11619     11621     11619     11622     11622     11623     11622     11624
     11622     11625     11625     11626     11625     11627     11625     11628
     11628     11629     11628     11630     11628     11631     11631     11632
     11631     11633     11631     11634     11634     11635     11634     11636
     11634     11637     11637     11638     11637     11639     11637     11640
     11640     11641     11640     11642     11640     11643     11643     11644
     11643     11645     11643     11646     11646     11647     11646     11648
     11646     11649     11649     11650     11649     11651     11649     11652
     11653     11657     11653     11661     11653     11665     11657     11658
     11657     11659     11657     11660     11661     11662     11661     11663
     11661     11664     11665     11666     11665     11667     11665     11668
     11653     11654     11654     11655     11654     11656     11654     11669
     11669     11670     11669     11671     11669     11675     11676     11677
     11675     11672     11672     11676     11672     11673     11672     11674
     11677     11678     11677     11679     11677     11680     11680     11681
     11680     11688     11680     11682     11688     11689     11688     11690
     11688     11691     11682     11683     11683     11685     11683     11684
     11685     11686     11685     11687     11685     11697     11697     11698
     11697     11699     11697     11700     11700     11701     11700     11702
     11700     11703     11703     11704     11703     11705     11703     11706
     11706     11707     11706     11708     11706     11709     11709     11710
     11709     11711     11709     11712     11712     11713     11712     11714
     11712     11715     11715     11716     11715     11717     11717     11718
     11717     11719     11719     11720     11719     11721     11719     11722
     11722     11723     11722     11724     11722     11725     11725     11726
     11725     11727     11725     11728     11728     11729     11728     11730
     11728     11731     11731     11732     11731     11733     11731     11734
     11734     11735     11734     11736     11734     11737     11737     11738
     11737     11739     11737     11740     11740     11741     11740     11742
     11740     11743     11691     11692     11692     11694     11692     11693
     11694     11695     11694     11696     11694     11744     11744     11745
     11744     11746     11744     11747     11747     11748     11747     11749
     11747     11750     11750     11751     11750     11752     11750     11753
     11753     11754     11753     11755     11753     11756     11756     11757
     11756     11758     11756     11759     11759     11760     11759     11761
     11759     11762     11762     11763     11762     11764     11762     11765
     11765     11766     11765     11767     11765     11768     11768     11769
     11768     11770     11768     11771     11771     11772     11771     11773
     11771     11774     11774     11775     11774     11776     11774     11777
     11777     11778     11777     11779     11777     11780     11780     11781
     11780     11782     11780     11783     11783     11784     11783     11785
     11783     11786     11787     11791     11787     11795     11787     11799
     11791     11792     11791     11793     11791     11794     11795     11796
     11795     11797     11795     11798     11799     11800     11799     11801
     11799     11802     11787     11788     11788     11789     11788     11790
     11788     11803     11803     11804     11803     11805     11803     11809
     11810     11811     11809     11806     11806     11810     11806     11807
     11806     11808     11811     11812     11811     11813     11811     11814
     11814     11815     11814     11822     11814     11816     11822     11823
     11822     11824     11822     11825     11816     11817     11817     11819
     11817     11818     11819     11820     11819     11821     11819     11831
     11831     11832     11831     11833     11831     11834     11834     11835
     11834     11836     11834     11837     11837     11838     11837     11839
     11837     11840     11840     11841     11840     11842     11840     11843
     11843     11844     11843     11845     11843     11846     11846     11847
     11846     11848     11846     11849     11849     11850     11849     11851
     11851     11852     11851     11853     11853     11854     11853     11855
     11853     11856     11856     11857     11856     11858     11856     11859
     11859     11860     11859     11861     11859     11862     11862     11863
     11862     11864     11862     11865     11865     11866     11865     11867
     11865     11868     11868     11869     11868     11870     11868     11871
     11871     11872     11871     11873     11871     11874     11874     11875
     11874     11876     11874     11877     11825     11826     11826     11828
     11826     11827     11828     11829     11828     11830     11828     11878
     11878     11879     11878     11880     11878     11881     11881     11882
     11881     11883     11881     11884     11884     11885     11884     11886
     11884     11887     11887     11888     11887     11889     11887     11890
     11890     11891     11890     11892     11890     11893     11893     11894
     11893     11895     11893     11896     11896     11897     11896     11898
     11896     11899     11899     11900     11899     11901     11899     11902
     11902     11903     11902     11904     11902     11905     11905     11906
     11905     11907     11905     11908     11908     11909     11908     11910
     11908     11911     11911     11912     11911     11913     11911     11914
     11914     11915     11914     11916     11914     11917     11917     11918
     11917     11919     11917     11920     11921     11925     11921     11929
     11921     11933     11925     11926     11925     11927     11925     11928
     11929     11930     11929     11931     11929     11932     11933     11934
     11933     11935     11933     11936     11921     11922     11922     11923
     11922     11924     11922     11937     11937     11938     11937     11939
     11937     11943     11944     11945     11943     11940     11940     11944
     11940     11941     11940     11942     11945     11946     11945     11947
     11945     11948     11948     11949     11948     11956     11948     11950
     11956     11957     11956     11958     11956     11959     11950     11951
     11951     11953     11951     11952     11953     11954     11953     11955
     11953     11965     11965     11966     11965     11967     11965     11968
     11968     11969     11968     11970     11968     11971     11971     11972
     11971     11973     11971     11974     11974     11975     11974     11976
     11974     11977     11977     11978     11977     11979     11977     11980
     11980     11981     11980     11982     11980     11983     11983     11984
     11983     11985     11985     11986     11985     11987     11987     11988
     11987     11989     11987     11990     11990     11991     11990     11992
     11990     11993     11993     11994     11993     11995     11993     11996
     11996     11997     11996     11998     11996     11999     11999     12000
     11999     12001     11999     12002     12002     12003     12002     12004
     12002     12005     12005     12006     12005     12007     12005     12008
     12008     12009     12008     12010     12008     12011     11959     11960
     11960     11962     11960     11961     11962     11963     11962     11964
     11962     12012     12012     12013     12012     12014     12012     12015
     12015     12016     12015     12017     12015     12018     12018     12019
     12018     12020     12018     12021     12021     12022     12021     12023
     12021     12024     12024     12025     12024     12026     12024     12027
     12027     12028     12027     12029     12027     12030     12030     12031
     12030     12032     12030     12033     12033     12034     12033     12035
     12033     12036     12036     12037     12036     12038     12036     12039
     12039     12040     12039     12041     12039     12042     12042     12043
     12042     12044     12042     12045     12045     12046     12045     12047
     12045     12048     12048     12049     12048     12050     12048     12051
     12051     12052     12051     12053     12051     12054     12055     12059
     12055     12063     12055     12067     12059     12060     12059     12061
     12059     12062     12063     12064     12063     12065     12063     12066
     12067     12068     12067     12069     12067     12070     12055     12056
     12056     12057     12056     12058     12056     12071     12071     12072
     12071     12073     12071     12077     12078     12079     12077     12074
     12074     12078     12074     12075     12074     12076     12079     12080
     12079     12081     12079     12082     12082     12083     12082     12090
     12082     12084     12090     12091     12090     12092     12090     12093
     12084     12085     12085     12087     12085     12086     12087     12088
     12087     12089     12087     12099     12099     12100     12099     12101
     12099     12102     12102     12103     12102     12104     12102     12105
     12105     12106     12105     12107     12105     12108     12108     12109
     12108     12110     12108     12111     12111     12112     12111     12113
     12111     12114     12114     12115     12114     12116     12114     12117
     12117     12118     12117     12119     12119     12120     12119     12121
     12121     12122     12121     12123     12121     12124     12124     12125
     12124     12126     12124     12127     12127     12128     12127     12129
     12127     12130     12130     12131     12130     12132     12130     12133
     12133     12134     12133     12135     12133     12136     12136     12137
     12136     12138     12136     12139     12139     12140     12139     12141
     12139     12142     12142     12143     12142     12144     12142     12145
     12093     12094     12094     12096     12094     12095     12096     12097
     12096     12098     12096     12146     12146     12147     12146     12148
     12146     12149     12149     12150     12149     12151     12149     12152
     12152     12153     12152     12154     12152     12155     12155     12156
     12155     12157     12155     12158     12158     12159     12158     12160
     12158     12161     12161     12162     12161     12163     12161     12164
     12164     12165     12164     12166     12164     12167     12167     12168
     12167     12169     12167     12170     12170     12171     12170     12172
     12170     12173     12173     12174     12173     12175     12173     12176
     12176     12177     12176     12178     12176     12179     12179     12180
     12179     12181     12179     12182     12182     12183     12182     12184
     12182     12185     12185     12186     12185     12187     12185     12188
     12189     12193     12189     12197     12189     12201     12193     12194
     12193     12195     12193     12196     12197     12198     12197     12199
     12197     12200     12201     12202     12201     12203     12201     12204
     12189     12190     12190     12191     12190     12192     12190     12205
     12205     12206     12205     12207     12205     12211     12212     12213
     12211     12208     12208     12212     12208     12209     12208     12210
     12213     12214     12213     12215     12213     12216     12216     12217
     12216     12224     12216     12218     12224     12225     12224     12226
     12224     12227     12218     12219     12219     12221     12219     12220
     12221     12222     12221     12223     12221     12233     12233     12234
     12233     12235     12233     12236     12236     12237     12236     12238
     12236     12239     12239     12240     12239     12241     12239     12242
     12242     12243     12242     12244     12242     12245     12245     12246
     12245     12247     12245     12248     12248     12249     12248     12250
     12248     12251     12251     12252     12251     12253     12253     12254
     12253     12255     12255     12256     12255     12257     12255     12258
     12258     12259     12258     12260     12258     12261     12261     12262
     12261     12263     12261     12264     12264     12265     12264     12266
     12264     12267     12267     12268     12267     12269     12267     12270
     12270     12271     12270     12272     12270     12273     12273     12274
     12273     12275     12273     12276     12276     12277     12276     12278
     12276     12279     12227     12228     12228     12230     12228     12229
     12230     12231     12230     12232     12230     12280     12280     12281
     12280     12282     12280     12283     12283     12284     12283     12285
     12283     12286     12286     12287     12286     12288     12286     12289
     12289     12290     12289     12291     12289     12292     12292     12293
     12292     12294     12292     12295     12295     12296     12295     12297
     12295     12298     12298     12299     12298     12300     12298     12301
     12301     12302     12301     12303     12301     12304     12304     12305
     12304     12306     12304     12307     12307     12308     12307     12309
     12307     12310     12310     12311     12310     12312     12310     12313
     12313     12314     12313     12315     12313     12316     12316     12317
     12316     12318     12316     12319     12319     12320     12319     12321
     12319     12322     12323     12327     12323     12331     12323     12335
     12327     12328     12327     12329     12327     12330     12331     12332
     12331     12333     12331     12334     12335     12336     12335     12337
     12335     12338     12323     12324     12324     12325     12324     12326
     12324     12339     12339     12340     12339     12341     12339     12345
     12346     12347     12345     12342     12342     12346     12342     12343
     12342     12344     12347     12348     12347     12349     12347     12350
     12350     12351     12350     12358     12350     12352     12358     12359
     12358     12360     12358     12361     12352     12353     12353     12355
     12353     12354     12355     12356     12355     12357     12355     12367
     12367     12368     12367     12369     12367     12370     12370     12371
     12370     12372     12370     12373     12373     12374     12373     12375
     12373     12376     12376     12377     12376     12378     12376     12379
     12379     12380     12379     12381     12379     12382     12382     12383
     12382     12384     12382     12385     12385     12386     12385     12387
     12387     12388     12387     12389     12389     12390     12389     12391
     12389     12392     12392     12393     12392     12394     12392     12395
     12395     12396     12395     12397     12395     12398     12398     12399
     12398     12400     12398     12401     12401     12402     12401     12403
     12401     12404     12404     12405     12404     12406     12404     12407
     12407     12408     12407     12409     12407     12410     12410     12411
     12410     12412     12410     12413     12361     12362     12362     12364
     12362     12363     12364     12365     12364     12366     12364     12414
     12414     12415     12414     12416     12414     12417     12417     12418
     12417     12419     12417     12420     12420     12421     12420     12422
     12420     12423     12423     12424     12423     12425     12423     12426
     12426     12427     12426     12428     12426     12429     12429     12430
     12429     12431     12429     12432     12432     12433     12432     12434
     12432     12435     12435     12436     12435     12437     12435     12438
     12438     12439     12438     12440     12438     12441     12441     12442
     12441     12443     12441     12444     12444     12445     12444     12446
     12444     12447     12447     12448     12447     12449     12447     12450
     12450     12451     12450     12452     12450     12453     12453     12454
     12453     12455     12453     12456     12457     12461     12457     12465
     12457     12469     12461     12462     12461     12463     12461     12464
     12465     12466     12465     12467     12465     12468     12469     12470
     12469     12471     12469     12472     12457     12458     12458     12459
     12458     12460     12458     12473     12473     12474     12473     12475
     12473     12479     12480     12481     12479     12476     12476     12480
     12476     12477     12476     12478     12481     12482     12481     12483
     12481     12484     12484     12485     12484     12492     12484     12486
     12492     12493     12492     12494     12492     12495     12486     12487
     12487     12489     12487     12488     12489     12490     12489     12491
     12489     12501     12501     12502     12501     12503     12501     12504
     12504     12505     12504     12506     12504     12507     12507     12508
     12507     12509     12507     12510     12510     12511     12510     12512
     12510     12513     12513     12514     12513     12515     12513     12516
     12516     12517     12516     12518     12516     12519     12519     12520
     12519     12521     12521     12522     12521     12523     12523     12524
     12523     12525     12523     12526     12526     12527     12526     12528
     12526     12529     12529     12530     12529     12531     12529     12532
     12532     12533     12532     12534     12532     12535     12535     12536
     12535     12537     12535     12538     12538     12539     12538     12540
     12538     12541     12541     12542     12541     12543     12541     12544
     12544     12545     12544     12546     12544     12547     12495     12496
     12496     12498     12496     12497     12498     12499     12498     12500
     12498     12548     12548     12549     12548     12550     12548     12551
     12551     12552     12551     12553     12551     12554     12554     12555
     12554     12556     12554     12557     12557     12558     12557     12559
     12557     12560     12560     12561     12560     12562     12560     12563
     12563     12564     12563     12565     12563     12566     12566     12567
     12566     12568     12566     12569     12569     12570     12569     12571
     12569     12572     12572     12573     12572     12574     12572     12575
     12575     12576     12575     12577     12575     12578     12578     12579
     12578     12580     12578     12581     12581     12582     12581     12583
     12581     12584     12584     12585     12584     12586     12584     12587
     12587     12588     12587     12589     12587     12590     12591     12595
     12591     12599     12591     12603     12595     12596     12595     12597
     12595     12598     12599     12600     12599     12601     12599     12602
     12603     12604     12603     12605     12603     12606     12591     12592
     12592     12593     12592     12594     12592     12607     12607     12608
     12607     12609     12607     12613     12614     12615     12613     12610
     12610     12614     12610     12611     12610     12612     12615     12616
     12615     12617     12615     12618     12618     12619     12618     12626
     12618     12620     12626     12627     12626     12628     12626     12629
     12620     12621     12621     12623     12621     12622     12623     12624
     12623     12625     12623     12635     12635     12636     12635     12637
     12635     12638     12638     12639     12638     12640     12638     12641
     12641     12642     12641     12643     12641     12644     12644     12645
     12644     12646     12644     12647     12647     12648     12647     12649
     12647     12650     12650     12651     12650     12652     12650     12653
     12653     12654     12653     12655     12655     12656     12655     12657
     12657     12658     12657     12659     12657     12660     12660     12661
     12660     12662     12660     12663     12663     12664     12663     12665
     12663     12666     12666     12667     12666     12668     12666     12669
     12669     12670     12669     12671     12669     12672     12672     12673
     12672     12674     12672     12675     12675     12676     12675     12677
     12675     12678     12678     12679     12678     12680     12678     12681
     12629     12630     12630     12632     12630     12631     12632     12633
     12632     12634     12632     12682     12682     12683     12682     12684
     12682     12685     12685     12686     12685     12687     12685     12688
     12688     12689     12688     12690     12688     12691     12691     12692
     12691     12693     12691     12694     12694     12695     12694     12696
     12694     12697     12697     12698     12697     12699     12697     12700
     12700     12701     12700     12702     12700     12703     12703     12704
     12703     12705     12703     12706     12706     12707     12706     12708
     12706     12709     12709     12710     12709     12711     12709     12712
     12712     12713     12712     12714     12712     12715     12715     12716
     12715     12717     12715     12718     12718     12719     12718     12720
     12718     12721     12721     12722     12721     12723     12721     12724
     12725     12729     12725     12733     12725     12737     12729     12730
     12729     12731     12729     12732     12733     12734     12733     12735
     12733     12736     12737     12738     12737     12739     12737     12740
     12725     12726     12726     12727     12726     12728     12726     12741
     12741     12742     12741     12743     12741     12747     12748     12749
     12747     12744     12744     12748     12744     12745     12744     12746
     12749     12750     12749     12751     12749     12752     12752     12753
     12752     12760     12752     12754     12760     12761     12760     12762
     12760     12763     12754     12755     12755     12757     12755     12756
     12757     12758     12757     12759     12757     12769     12769     12770
     12769     12771     12769     12772     12772     12773     12772     12774
     12772     12775     12775     12776     12775     12777     12775     12778
     12778     12779     12778     12780     12778     12781     12781     12782
     12781     12783     12781     12784     12784     12785     12784     12786
     12784     12787     12787     12788     12787     12789     12789     12790
     12789     12791     12791     12792     12791     12793     12791     12794
     12794     12795     12794     12796     12794     12797     12797     12798
     12797     12799     12797     12800     12800     12801     12800     12802
     12800     12803     12803     12804     12803     12805     12803     12806
     12806     12807     12806     12808     12806     12809     12809     12810
     12809     12811     12809     12812     12812     12813     12812     12814
     12812     12815     12763     12764     12764     12766     12764     12765
     12766     12767     12766     12768     12766     12816     12816     12817
     12816     12818     12816     12819     12819     12820     12819     12821
     12819     12822     12822     12823     12822     12824     12822     12825
     12825     12826     12825     12827     12825     12828     12828     12829
     12828     12830     12828     12831     12831     12832     12831     12833
     12831     12834     12834     12835     12834     12836     12834     12837
     12837     12838     12837     12839     12837     12840     12840     12841
     12840     12842     12840     12843     12843     12844     12843     12845
     12843     12846     12846     12847     12846     12848     12846     12849
     12849     12850     12849     12851     12849     12852     12852     12853
     12852     12854     12852     12855     12855     12856     12855     12857
     12855     12858     12859     12863     12859     12867     12859     12871
     12863     12864     12863     12865     12863     12866     12867     12868
     12867     12869     12867     12870     12871     12872     12871     12873
     12871     12874     12859     12860     12860     12861     12860     12862
     12860     12875     12875     12876     12875     12877     12875     12881
     12882     12883     12881     12878     12878     12882     12878     12879
     12878     12880     12883     12884     12883     12885     12883     12886
     12886     12887     12886     12894     12886     12888     12894     12895
     12894     12896     12894     12897     12888     12889     12889     12891
     12889     12890     12891     12892     12891     12893     12891     12903
     12903     12904     12903     12905     12903     12906     12906     12907
     12906     12908     12906     12909     12909     12910     12909     12911
     12909     12912     12912     12913     12912     12914     12912     12915
     12915     12916     12915     12917     12915     12918     12918     12919
     12918     12920     12918     12921     12921     12922     12921     12923
     12923     12924     12923     12925     12925     12926     12925     12927
     12925     12928     12928     12929     12928     12930     12928     12931
     12931     12932     12931     12933     12931     12934     12934     12935
     12934     12936     12934     12937     12937     12938     12937     12939
     12937     12940     12940     12941     12940     12942     12940     12943
     12943     12944     12943     12945     12943     12946     12946     12947
     12946     12948     12946     12949     12897     12898     12898     12900
     12898     12899     12900     12901     12900     12902     12900     12950
     12950     12951     12950     12952     12950     12953     12953     12954
     12953     12955     12953     12956     12956     12957     12956     12958
     12956     12959     12959     12960     12959     12961     12959     12962
     12962     12963     12962     12964     12962     12965     12965     12966
     12965     12967     12965     12968     12968     12969     12968     12970
     12968     12971     12971     12972     12971     12973     12971     12974
     12974     12975     12974     12976     12974     12977     12977     12978
     12977     12979     12977     12980     12980     12981     12980     12982
     12980     12983     12983     12984     12983     12985     12983     12986
     12986     12987     12986     12988     12986     12989     12989     12990
     12989     12991     12989     12992     12993     12997     12993     13001
     12993     13005     12997     12998     12997     12999     12997     13000
     13001     13002     13001     13003     13001     13004     13005     13006
     13005     13007     13005     13008     12993     12994     12994     12995
     12994     12996     12994     13009     13009     13010     13009     13011
     13009     13015     13016     13017     13015     13012     13012     13016
     13012     13013     13012     13014     13017     13018     13017     13019
     13017     13020     13020     13021     13020     13028     13020     13022
     13028     13029     13028     13030     13028     13031     13022     13023
     13023     13025     13023     13024     13025     13026     13025     13027
     13025     13037     13037     13038     13037     13039     13037     13040
     13040     13041     13040     13042     13040     13043     13043     13044
     13043     13045     13043     13046     13046     13047     13046     13048
     13046     13049     13049     13050     13049     13051     13049     13052
     13052     13053     13052     13054     13052     13055     13055     13056
     13055     13057     13057     13058     13057     13059     13059     13060
     13059     13061     13059     13062     13062     13063     13062     13064
     13062     13065     13065     13066     13065     13067     13065     13068
     13068     13069     13068     13070     13068     13071     13071     13072
     13071     13073     13071     13074     13074     13075     13074     13076
     13074     13077     13077     13078     13077     13079     13077     13080
     13080     13081     13080     13082     13080     13083     13031     13032
     13032     13034     13032     13033     13034     13035     13034     13036
     13034     13084     13084     13085     13084     13086     13084     13087
     13087     13088     13087     13089     13087     13090     13090     13091
     13090     13092     13090     13093     13093     13094     13093     13095
     13093     13096     13096     13097     13096     13098     13096     13099
     13099     13100     13099     13101     13099     13102     13102     13103
     13102     13104     13102     13105     13105     13106     13105     13107
     13105     13108     13108     13109     13108     13110     13108     13111
     13111     13112     13111     13113     13111     13114     13114     13115
     13114     13116     13114     13117     13117     13118     13117     13119
     13117     13120     13120     13121     13120     13122     13120     13123
     13123     13124     13123     13125     13123     13126     13127     13131
     13127     13135     13127     13139     13131     13132     13131     13133
     13131     13134     13135     13136     13135     13137     13135     13138
     13139     13140     13139     13141     13139     13142     13127     13128
     13128     13129     13128     13130     13128     13143     13143     13144
     13143     13145     13143     13149     13150     13151     13149     13146
     13146     13150     13146     13147     13146     13148     13151     13152
     13151     13153     13151     13154     13154     13155     13154     13162
     13154     13156     13162     13163     13162     13164     13162     13165
     13156     13157     13157     13159     13157     13158     13159     13160
     13159     13161     13159     13171     13171     13172     13171     13173
     13171     13174     13174     13175     13174     13176     13174     13177
     13177     13178     13177     13179     13177     13180     13180     13181
     13180     13182     13180     13183     13183     13184     13183     13185
     13183     13186     13186     13187     13186     13188     13186     13189
     13189     13190     13189     13191     13191     13192     13191     13193
     13193     13194     13193     13195     13193     13196     13196     13197
     13196     13198     13196     13199     13199     13200     13199     13201
     13199     13202     13202     13203     13202     13204     13202     13205
     13205     13206     13205     13207     13205     13208     13208     13209
     13208     13210     13208     13211     13211     13212     13211     13213
     13211     13214     13214     13215     13214     13216     13214     13217
     13165     13166     13166     13168     13166     13167     13168     13169
     13168     13170     13168     13218     13218     13219     13218     13220
     13218     13221     13221     13222     13221     13223     13221     13224
     13224     13225     13224     13226     13224     13227     13227     13228
     13227     13229     13227     13230     13230     13231     13230     13232
     13230     13233     13233     13234     13233     13235     13233     13236
     13236     13237     13236     13238     13236     13239     13239     13240
     13239     13241     13239     13242     13242     13243     13242     13244
     13242     13245     13245     13246     13245     13247     13245     13248
     13248     13249     13248     13250     13248     13251     13251     13252
     13251     13253     13251     13254     13254     13255     13254     13256
     13254     13257     13257     13258     13257     13259     13257     13260
     13261     13265     13261     13269     13261     13273     13265     13266
     13265     13267     13265     13268     13269     13270     13269     13271
     13269     13272     13273     13274     13273     13275     13273     13276
     13261     13262     13262     13263     13262     13264     13262     13277
     13277     13278     13277     13279     13277     13283     13284     13285
     13283     13280     13280     13284     13280     13281     13280     13282
     13285     13286     13285     13287     13285     13288     13288     13289
     13288     13296     13288     13290     13296     13297     13296     13298
     13296     13299     13290     13291     13291     13293     13291     13292
     13293     13294     13293     13295     13293     13305     13305     13306
     13305     13307     13305     13308     13308     13309     13308     13310
     13308     13311     13311     13312     13311     13313     13311     13314
     13314     13315     13314     13316     13314     13317     13317     13318
     13317     13319     13317     13320     13320     13321     13320     13322
     13320     13323     13323     13324     13323     13325     13325     13326
     13325     13327     13327     13328     13327     13329     13327     13330
     13330     13331     13330     13332     13330     13333     13333     13334
     13333     13335     13333     13336     13336     13337     13336     13338
     13336     13339     13339     13340     13339     13341     13339     13342
     13342     13343     13342     13344     13342     13345     13345     13346
     13345     13347     13345     13348     13348     13349     13348     13350
     13348     13351     13299     13300     13300     13302     13300     13301
     13302     13303     13302     13304     13302     13352     13352     13353
     13352     13354     13352     13355     13355     13356     13355     13357
     13355     13358     13358     13359     13358     13360     13358     13361
     13361     13362     13361     13363     13361     13364     13364     13365
     13364     13366     13364     13367     13367     13368     13367     13369
     13367     13370     13370     13371     13370     13372     13370     13373
     13373     13374     13373     13375     13373     13376     13376     13377
     13376     13378     13376     13379     13379     13380     13379     13381
     13379     13382     13382     13383     13382     13384     13382     13385
     13385     13386     13385     13387     13385     13388     13388     13389
     13388     13390     13388     13391     13391     13392     13391     13393
     13391     13394     13395     13399     13395     13403     13395     13407
     13399     13400     13399     13401     13399     13402     13403     13404
     13403     13405     13403     13406     13407     13408     13407     13409
     13407     13410     13395     13396     13396     13397     13396     13398
     13396     13411     13411     13412     13411     13413     13411     13417
     13418     13419     13417     13414     13414     13418     13414     13415
     13414     13416     13419     13420     13419     13421     13419     13422
     13422     13423     13422     13430     13422     13424     13430     13431
     13430     13432     13430     13433     13424     13425     13425     13427
     13425     13426     13427     13428     13427     13429     13427     13439
     13439     13440     13439     13441     13439     13442     13442     13443
     13442     13444     13442     13445     13445     13446     13445     13447
     13445     13448     13448     13449     13448     13450     13448     13451
     13451     13452     13451     13453     13451     13454     13454     13455
     13454     13456     13454     13457     13457     13458     13457     13459
     13459     13460     13459     13461     13461     13462     13461     13463
     13461     13464     13464     13465     13464     13466     13464     13467
     13467     13468     13467     13469     13467     13470     13470     13471
     13470     13472     13470     13473     13473     13474     13473     13475
     13473     13476     13476     13477     13476     13478     13476     13479
     13479     13480     13479     13481     13479     13482     13482     13483
     13482     13484     13482     13485     13433     13434     13434     13436
     13434     13435     13436     13437     13436     13438     13436     13486
     13486     13487     13486     13488     13486     13489     13489     13490
     13489     13491     13489     13492     13492     13493     13492     13494
     13492     13495     13495     13496     13495     13497     13495     13498
     13498     13499     13498     13500     13498     13501     13501     13502
     13501     13503     13501     13504     13504     13505     13504     13506
     13504     13507     13507     13508     13507     13509     13507     13510
     13510     13511     13510     13512     13510     13513     13513     13514
     13513     13515     13513     13516     13516     13517     13516     13518
     13516     13519     13519     13520     13519     13521     13519     13522
     13522     13523     13522     13524     13522     13525     13525     13526
     13525     13527     13525     13528     13529     13530     13529     13531
     13529     13532     13529     13533     13537     13535     13535     13533
     13535     13536     13533     13534     13533     13538     13546     13545
     13538     13539     13538     13540     13538     13544     13544     13541
     13541     13545     13541     13542     13541     13543     13546     13547
     13546     13548     13546     13549     13549     13550     13549     13557
     13549     13551     13557     13558     13557     13559     13557     13560
     13551     13552     13552     13554     13552     13553     13554     13555
     13554     13556     13554     13566     13566     13567     13566     13568
     13566     13569     13569     13570     13569     13571     13569     13572
     13572     13573     13572     13574     13572     13575     13575     13576
     13575     13577     13575     13578     13578     13579     13578     13580
     13578     13581     13581     13582     13581     13583     13581     13584
     13584     13585     13584     13586     13586     13587     13586     13588
     13588     13589     13588     13590     13588     13591     13591     13592
     13591     13593     13591     13594     13594     13595     13594     13596
     13594     13597     13597     13598     13597     13599     13597     13600
     13600     13601     13600     13602     13600     13603     13603     13604
     13603     13605     13603     13606     13606     13607     13606     13608
     13606     13609     13609     13610     13609     13611     13609     13612
     13560     13561     13561     13563     13561     13562     13563     13564
     13563     13565     13563     13613     13613     13614     13613     13615
     13613     13616     13616     13617     13616     13618     13616     13619
     13619     13620     13619     13621     13619     13622     13622     13623
     13622     13624     13622     13625     13625     13626     13625     13627
     13625     13628     13628     13629     13628     13630     13628     13631
     13631     13632     13631     13633     13631     13634     13634     13635
     13634     13636     13634     13637     13637     13638     13637     13639
     13637     13640     13640     13641     13640     13642     13640     13643
     13643     13644     13643     13645     13643     13646     13646     13647
     13646     13648     13646     13649     13649     13650     13649     13651
     13649     13652     13652     13653     13652     13654     13652     13655
     13656     13660     13656     13664     13656     13668     13660     13661
     13660     13662     13660     13663     13664     13665     13664     13666
     13664     13667     13668     13669     13668     13670     13668     13671
     13656     13657     13657     13658     13657     13659     13657     13672
     13672     13673     13672     13674     13672     13678     13679     13680
     13678     13675     13675     13679     13675     13676     13675     13677
     13680     13681     13680     13682     13680     13683     13683     13684
     13683     13691     13683     13685     13691     13692     13691     13693
     13691     13694     13685     13686     13686     13688     13686     13687
     13688     13689     13688     13690     13688     13700     13700     13701
     13700     13702     13700     13703     13703     13704     13703     13705
     13703     13706     13706     13707     13706     13708     13706     13709
     13709     13710     13709     13711     13709     13712     13712     13713
     13712     13714     13712     13715     13715     13716     13715     13717
     13715     13718     13718     13719     13718     13720     13720     13721
     13720     13722     13722     13723     13722     13724     13722     13725
     13725     13726     13725     13727     13725     13728     13728     13729
     13728     13730     13728     13731     13731     13732     13731     13733
     13731     13734     13734     13735     13734     13736     13734     13737
     13737     13738     13737     13739     13737     13740     13740     13741
     13740     13742     13740     13743     13743     13744     13743     13745
     13743     13746     13694     13695     13695     13697     13695     13696
     13697     13698     13697     13699     13697     13747     13747     13748
     13747     13749     13747     13750     13750     13751     13750     13752
     13750     13753     13753     13754     13753     13755     13753     13756
     13756     13757     13756     13758     13756     13759     13759     13760
     13759     13761     13759     13762     13762     13763     13762     13764
     13762     13765     13765     13766     13765     13767     13765     13768
     13768     13769     13768     13770     13768     13771     13771     13772
     13771     13773     13771     13774     13774     13775     13774     13776
     13774     13777     13777     13778     13777     13779     13777     13780
     13780     13781     13780     13782     13780     13783     13783     13784
     13783     13785     13783     13786     13786     13787     13786     13788
     13786     13789     13790     13791     13790     13792     13790     13793
     13790     13794     13798     13796     13796     13794     13796     13797
     13794     13795     13794     13799     13807     13806     13799     13800
     13799     13801     13799     13805     13805     13802     13802     13806
     13802     13803     13802     13804     13807     13808     13807     13809
     13807     13810     13810     13811     13810     13818     13810     13812
     13818     13819     13818     13820     13818     13821     13812     13813
     13813     13815     13813     13814     13815     13816     13815     13817
     13815     13827     13827     13828     13827     13829     13827     13830
     13830     13831     13830     13832     13830     13833     13833     13834
     13833     13835     13833     13836     13836     13837     13836     13838
     13836     13839     13839     13840     13839     13841     13839     13842
     13842     13843     13842     13844     13842     13845     13845     13846
     13845     13847     13847     13848     13847     13849     13849     13850
     13849     13851     13849     13852     13852     13853     13852     13854
     13852     13855     13855     13856     13855     13857     13855     13858
     13858     13859     13858     13860     13858     13861     13861     13862
     13861     13863     13861     13864     13864     13865     13864     13866
     13864     13867     13867     13868     13867     13869     13867     13870
     13870     13871     13870     13872     13870     13873     13821     13822
     13822     13824     13822     13823     13824     13825     13824     13826
     13824     13874     13874     13875     13874     13876     13874     13877
     13877     13878     13877     13879     13877     13880     13880     13881
     13880     13882     13880     13883     13883     13884     13883     13885
     13883     13886     13886     13887     13886     13888     13886     13889
     13889     13890     13889     13891     13889     13892     13892     13893
     13892     13894     13892     13895     13895     13896     13895     13897
     13895     13898     13898     13899     13898     13900     13898     13901
     13901     13902     13901     13903     13901     13904     13904     13905
     13904     13906     13904     13907     13907     13908     13907     13909
     13907     13910     13910     13911     13910     13912     13910     13913
     13913     13914     13913     13915     13913     13916     13917     13921
     13917     13925     13917     13929     13921     13922     13921     13923
     13921     13924     13925     13926     13925     13927     13925     13928
     13929     13930     13929     13931     13929     13932     13917     13918
     13918     13919     13918     13920     13918     13933     13933     13934
     13933     13935     13933     13939     13940     13941     13939     13936
     13936     13940     13936     13937     13936     13938     13941     13942
     13941     13943     13941     13944     13944     13945     13944     13952
     13944     13946     13952     13953     13952     13954     13952     13955
     13946     13947     13947     13949     13947     13948     13949     13950
     13949     13951     13949     13961     13961     13962     13961     13963
     13961     13964     13964     13965     13964     13966     13964     13967
     13967     13968     13967     13969     13967     13970     13970     13971
     13970     13972     13970     13973     13973     13974     13973     13975
     13973     13976     13976     13977     13976     13978     13976     13979
     13979     13980     13979     13981     13981     13982     13981     13983
     13983     13984     13983     13985     13983     13986     13986     13987
     13986     13988     13986     13989     13989     13990     13989     13991
     13989     13992     13992     13993     13992     13994     13992     13995
     13995     13996     13995     13997     13995     13998     13998     13999
     13998     14000     13998     14001     14001     14002     14001     14003
     14001     14004     14004     14005     14004     14006     14004     14007
     13955     13956     13956     13958     13956     13957     13958     13959
     13958     13960     13958     14008     14008     14009     14008     14010
     14008     14011     14011     14012     14011     14013     14011     14014
     14014     14015     14014     14016     14014     14017     14017     14018
     14017     14019     14017     14020     14020     14021     14020     14022
     14020     14023     14023     14024     14023     14025     14023     14026
     14026     14027     14026     14028     14026     14029     14029     14030
     14029     14031     14029     14032     14032     14033     14032     14034
     14032     14035     14035     14036     14035     14037     14035     14038
     14038     14039     14038     14040     14038     14041     14041     14042
     14041     14043     14041     14044     14044     14045     14044     14046
     14044     14047     14047     14048     14047     14049     14047     14050
     14051     14055     14051     14059     14051     14063     14055     14056
     14055     14057     14055     14058     14059     14060     14059     14061
     14059     14062     14063     14064     14063     14065     14063     14066
     14051     14052     14052     14053     14052     14054     14052     14067
     14067     14068     14067     14069     14067     14073     14074     14075
     14073     14070     14070     14074     14070     14071     14070     14072
     14075     14076     14075     14077     14075     14078     14078     14079
     14078     14086     14078     14080     14086     14087     14086     14088
     14086     14089     14080     14081     14081     14083     14081     14082
     14083     14084     14083     14085     14083     14095     14095     14096
     14095     14097     14095     14098     14098     14099     14098     14100
     14098     14101     14101     14102     14101     14103     14101     14104
     14104     14105     14104     14106     14104     14107     14107     14108
     14107     14109     14107     14110     14110     14111     14110     14112
     14110     14113     14113     14114     14113     14115     14115     14116
     14115     14117     14117     14118     14117     14119     14117     14120
     14120     14121     14120     14122     14120     14123     14123     14124
     14123     14125     14123     14126     14126     14127     14126     14128
     14126     14129     14129     14130     14129     14131     14129     14132
     14132     14133     14132     14134     14132     14135     14135     14136
     14135     14137     14135     14138     14138     14139     14138     14140
     14138     14141     14089     14090     14090     14092     14090     14091
     14092     14093     14092     14094     14092     14142     14142     14143
     14142     14144     14142     14145     14145     14146     14145     14147
     14145     14148     14148     14149     14148     14150     14148     14151
     14151     14152     14151     14153     14151     14154     14154     14155
     14154     14156     14154     14157     14157     14158     14157     14159
     14157     14160     14160     14161     14160     14162     14160     14163
     14163     14164     14163     14165     14163     14166     14166     14167
     14166     14168     14166     14169     14169     14170     14169     14171
     14169     14172     14172     14173     14172     14174     14172     14175
     14175     14176     14175     14177     14175     14178     14178     14179
     14178     14180     14178     14181     14181     14182     14181     14183
     14181     14184     14185     14186     14185     14187     14185     14188
     14185     14189     14193     14191     14191     14189     14191     14192
     14189     14190     14189     14194     14202     14201     14194     14195
     14194     14196     14194     14200     14200     14197     14197     14201
     14197     14198     14197     14199     14202     14203     14202     14204
     14202     14205     14205     14206     14205     14213     14205     14207
     14213     14214     14213     14215     14213     14216     14207     14208
     14208     14210     14208     14209     14210     14211     14210     14212
     14210     14222     14222     14223     14222     14224     14222     14225
     14225     14226     14225     14227     14225     14228     14228     14229
     14228     14230     14228     14231     14231     14232     14231     14233
     14231     14234     14234     14235     14234     14236     14234     14237
     14237     14238     14237     14239     14237     14240     14240     14241
     14240     14242     14242     14243     14242     14244     14244     14245
     14244     14246     14244     14247     14247     14248     14247     14249
     14247     14250     14250     14251     14250     14252     14250     14253
     14253     14254     14253     14255     14253     14256     14256     14257
     14256     14258     14256     14259     14259     14260     14259     14261
     14259     14262     14262     14263     14262     14264     14262     14265
     14265     14266     14265     14267     14265     14268     14216     14217
     14217     14219     14217     14218     14219     14220     14219     14221
     14219     14269     14269     14270     14269     14271     14269     14272
     14272     14273     14272     14274     14272     14275     14275     14276
     14275     14277     14275     14278     14278     14279     14278     14280
     14278     14281     14281     14282     14281     14283     14281     14284
     14284     14285     14284     14286     14284     14287     14287     14288
     14287     14289     14287     14290     14290     14291     14290     14292
     14290     14293     14293     14294     14293     14295     14293     14296
     14296     14297     14296     14298     14296     14299     14299     14300
     14299     14301     14299     14302     14302     14303     14302     14304
     14302     14305     14305     14306     14305     14307     14305     14308
     14308     14309     14308     14310     14308     14311     14312     14316
     14312     14320     14312     14324     14316     14317     14316     14318
     14316     14319     14320     14321     14320     14322     14320     14323
     14324     14325     14324     14326     14324     14327     14312     14313
     14313     14314     14313     14315     14313     14328     14328     14329
     14328     14330     14328     14334     14335     14336     14334     14331
     14331     14335     14331     14332     14331     14333     14336     14337
     14336     14338     14336     14339     14339     14340     14339     14347
     14339     14341     14347     14348     14347     14349     14347     14350
     14341     14342     14342     14344     14342     14343     14344     14345
     14344     14346     14344     14356     14356     14357     14356     14358
     14356     14359     14359     14360     14359     14361     14359     14362
     14362     14363     14362     14364     14362     14365     14365     14366
     14365     14367     14365     14368     14368     14369     14368     14370
     14368     14371     14371     14372     14371     14373     14371     14374
     14374     14375     14374     14376     14376     14377     14376     14378
     14378     14379     14378     14380     14378     14381     14381     14382
     14381     14383     14381     14384     14384     14385     14384     14386
     14384     14387     14387     14388     14387     14389     14387     14390
     14390     14391     14390     14392     14390     14393     14393     14394
     14393     14395     14393     14396     14396     14397     14396     14398
     14396     14399     14399     14400     14399     14401     14399     14402
     14350     14351     14351     14353     14351     14352     14353     14354
     14353     14355     14353     14403     14403     14404     14403     14405
     14403     14406     14406     14407     14406     14408     14406     14409
     14409     14410     14409     14411     14409     14412     14412     14413
     14412     14414     14412     14415     14415     14416     14415     14417
     14415     14418     14418     14419     14418     14420     14418     14421
     14421     14422     14421     14423     14421     14424     14424     14425
     14424     14426     14424     14427     14427     14428     14427     14429
     14427     14430     14430     14431     14430     14432     14430     14433
     14433     14434     14433     14435     14433     14436     14436     14437
     14436     14438     14436     14439     14439     14440     14439     14441
     14439     14442     14442     14443     14442     14444     14442     14445
     14446     14450     14446     14454     14446     14458     14450     14451
     14450     14452     14450     14453     14454     14455     14454     14456
     14454     14457     14458     14459     14458     14460     14458     14461
     14446     14447     14447     14448     14447     14449     14447     14462
     14462     14463     14462     14464     14462     14468     14469     14470
     14468     14465     14465     14469     14465     14466     14465     14467
     14470     14471     14470     14472     14470     14473     14473     14474
     14473     14481     14473     14475     14481     14482     14481     14483
     14481     14484     14475     14476     14476     14478     14476     14477
     14478     14479     14478     14480     14478     14490     14490     14491
     14490     14492     14490     14493     14493     14494     14493     14495
     14493     14496     14496     14497     14496     14498     14496     14499
     14499     14500     14499     14501     14499     14502     14502     14503
     14502     14504     14502     14505     14505     14506     14505     14507
     14505     14508     14508     14509     14508     14510     14510     14511
     14510     14512     14512     14513     14512     14514     14512     14515
     14515     14516     14515     14517     14515     14518     14518     14519
     14518     14520     14518     14521     14521     14522     14521     14523
     14521     14524     14524     14525     14524     14526     14524     14527
     14527     14528     14527     14529     14527     14530     14530     14531
     14530     14532     14530     14533     14533     14534     14533     14535
     14533     14536     14484     14485     14485     14487     14485     14486
     14487     14488     14487     14489     14487     14537     14537     14538
     14537     14539     14537     14540     14540     14541     14540     14542
     14540     14543     14543     14544     14543     14545     14543     14546
     14546     14547     14546     14548     14546     14549     14549     14550
     14549     14551     14549     14552     14552     14553     14552     14554
     14552     14555     14555     14556     14555     14557     14555     14558
     14558     14559     14558     14560     14558     14561     14561     14562
     14561     14563     14561     14564     14564     14565     14564     14566
     14564     14567     14567     14568     14567     14569     14567     14570
     14570     14571     14570     14572     14570     14573     14573     14574
     14573     14575     14573     14576     14576     14577     14576     14578
     14576     14579     14580     14581     14580     14582     14580     14583
     14580     14584     14588     14586     14586     14584     14586     14587
     14584     14585     14584     14589     14597     14596     14589     14590
     14589     14591     14589     14595     14595     14592     14592     14596
     14592     14593     14592     14594     14597     14598     14597     14599
     14597     14600     14600     14601     14600     14608     14600     14602
     14608     14609     14608     14610     14608     14611     14602     14603
     14603     14605     14603     14604     14605     14606     14605     14607
     14605     14617     14617     14618     14617     14619     14617     14620
     14620     14621     14620     14622     14620     14623     14623     14624
     14623     14625     14623     14626     14626     14627     14626     14628
     14626     14629     14629     14630     14629     14631     14629     14632
     14632     14633     14632     14634     14632     14635     14635     14636
     14635     14637     14637     14638     14637     14639     14639     14640
     14639     14641     14639     14642     14642     14643     14642     14644
     14642     14645     14645     14646     14645     14647     14645     14648
     14648     14649     14648     14650     14648     14651     14651     14652
     14651     14653     14651     14654     14654     14655     14654     14656
     14654     14657     14657     14658     14657     14659     14657     14660
     14660     14661     14660     14662     14660     14663     14611     14612
     14612     14614     14612     14613     14614     14615     14614     14616
     14614     14664     14664     14665     14664     14666     14664     14667
     14667     14668     14667     14669     14667     14670     14670     14671
     14670     14672     14670     14673     14673     14674     14673     14675
     14673     14676     14676     14677     14676     14678     14676     14679
     14679     14680     14679     14681     14679     14682     14682     14683
     14682     14684     14682     14685     14685     14686     14685     14687
     14685     14688     14688     14689     14688     14690     14688     14691
     14691     14692     14691     14693     14691     14694     14694     14695
     14694     14696     14694     14697     14697     14698     14697     14699
     14697     14700     14700     14701     14700     14702     14700     14703
     14703     14704     14703     14705     14703     14706     14707     14711
     14707     14715     14707     14719     14711     14712     14711     14713
     14711     14714     14715     14716     14715     14717     14715     14718
     14719     14720     14719     14721     14719     14722     14707     14708
     14708     14709     14708     14710     14708     14723     14723     14724
     14723     14725     14723     14729     14730     14731     14729     14726
     14726     14730     14726     14727     14726     14728     14731     14732
     14731     14733     14731     14734     14734     14735     14734     14742
     14734     14736     14742     14743     14742     14744     14742     14745
     14736     14737     14737     14739     14737     14738     14739     14740
     14739     14741     14739     14751     14751     14752     14751     14753
     14751     14754     14754     14755     14754     14756     14754     14757
     14757     14758     14757     14759     14757     14760     14760     14761
     14760     14762     14760     14763     14763     14764     14763     14765
     14763     14766     14766     14767     14766     14768     14766     14769
     14769     14770     14769     14771     14771     14772     14771     14773
     14773     14774     14773     14775     14773     14776     14776     14777
     14776     14778     14776     14779     14779     14780     14779     14781
     14779     14782     14782     14783     14782     14784     14782     14785
     14785     14786     14785     14787     14785     14788     14788     14789
     14788     14790     14788     14791     14791     14792     14791     14793
     14791     14794     14794     14795     14794     14796     14794     14797
     14745     14746     14746     14748     14746     14747     14748     14749
     14748     14750     14748     14798     14798     14799     14798     14800
     14798     14801     14801     14802     14801     14803     14801     14804
     14804     14805     14804     14806     14804     14807     14807     14808
     14807     14809     14807     14810     14810     14811     14810     14812
     14810     14813     14813     14814     14813     14815     14813     14816
     14816     14817     14816     14818     14816     14819     14819     14820
     14819     14821     14819     14822     14822     14823     14822     14824
     14822     14825     14825     14826     14825     14827     14825     14828
     14828     14829     14828     14830     14828     14831     14831     14832
     14831     14833     14831     14834     14834     14835     14834     14836
     14834     14837     14837     14838     14837     14839     14837     14840
     14841     14845     14841     14849     14841     14853     14845     14846
     14845     14847     14845     14848     14849     14850     14849     14851
     14849     14852     14853     14854     14853     14855     14853     14856
     14841     14842     14842     14843     14842     14844     14842     14857
     14857     14858     14857     14859     14857     14863     14864     14865
     14863     14860     14860     14864     14860     14861     14860     14862
     14865     14866     14865     14867     14865     14868     14868     14869
     14868     14876     14868     14870     14876     14877     14876     14878
     14876     14879     14870     14871     14871     14873     14871     14872
     14873     14874     14873     14875     14873     14885     14885     14886
     14885     14887     14885     14888     14888     14889     14888     14890
     14888     14891     14891     14892     14891     14893     14891     14894
     14894     14895     14894     14896     14894     14897     14897     14898
     14897     14899     14897     14900     14900     14901     14900     14902
     14900     14903     14903     14904     14903     14905     14905     14906
     14905     14907     14907     14908     14907     14909     14907     14910
     14910     14911     14910     14912     14910     14913     14913     14914
     14913     14915     14913     14916     14916     14917     14916     14918
     14916     14919     14919     14920     14919     14921     14919     14922
     14922     14923     14922     14924     14922     14925     14925     14926
     14925     14927     14925     14928     14928     14929     14928     14930
     14928     14931     14879     14880     14880     14882     14880     14881
     14882     14883     14882     14884     14882     14932     14932     14933
     14932     14934     14932     14935     14935     14936     14935     14937
     14935     14938     14938     14939     14938     14940     14938     14941
     14941     14942     14941     14943     14941     14944     14944     14945
     14944     14946     14944     14947     14947     14948     14947     14949
     14947     14950     14950     14951     14950     14952     14950     14953
     14953     14954     14953     14955     14953     14956     14956     14957
     14956     14958     14956     14959     14959     14960     14959     14961
     14959     14962     14962     14963     14962     14964     14962     14965
     14965     14966     14965     14967     14965     14968     14968     14969
     14968     14970     14968     14971     14971     14972     14971     14973
     14971     14974     14975     14976     14975     14977     14975     14978
     14975     14979     14983     14981     14981     14979     14981     14982
     14979     14980     14979     14984     14992     14991     14984     14985
     14984     14986     14984     14990     14990     14987     14987     14991
     14987     14988     14987     14989     14992     14993     14992     14994
     14992     14995     14995     14996     14995     15003     14995     14997
     15003     15004     15003     15005     15003     15006     14997     14998
     14998     15000     14998     14999     15000     15001     15000     15002
     15000     15012     15012     15013     15012     15014     15012     15015
     15015     15016     15015     15017     15015     15018     15018     15019
     15018     15020     15018     15021     15021     15022     15021     15023
     15021     15024     15024     15025     15024     15026     15024     15027
     15027     15028     15027     15029     15027     15030     15030     15031
     15030     15032     15032     15033     15032     15034     15034     15035
     15034     15036     15034     15037     15037     15038     15037     15039
     15037     15040     15040     15041     15040     15042     15040     15043
     15043     15044     15043     15045     15043     15046     15046     15047
     15046     15048     15046     15049     15049     15050     15049     15051
     15049     15052     15052     15053     15052     15054     15052     15055
     15055     15056     15055     15057     15055     15058     15006     15007
     15007     15009     15007     15008     15009     15010     15009     15011
     15009     15059     15059     15060     15059     15061     15059     15062
     15062     15063     15062     15064     15062     15065     15065     15066
     15065     15067     15065     15068     15068     15069     15068     15070
     15068     15071     15071     15072     15071     15073     15071     15074
     15074     15075     15074     15076     15074     15077     15077     15078
     15077     15079     15077     15080     15080     15081     15080     15082
     15080     15083     15083     15084     15083     15085     15083     15086
     15086     15087     15086     15088     15086     15089     15089     15090
     15089     15091     15089     15092     15092     15093     15092     15094
     15092     15095     15095     15096     15095     15097     15095     15098
     15098     15099     15098     15100     15098     15101     15102     15106
     15102     15110     15102     15114     15106     15107     15106     15108
     15106     15109     15110     15111     15110     15112     15110     15113
     15114     15115     15114     15116     15114     15117     15102     15103
     15103     15104     15103     15105     15103     15118     15118     15119
     15118     15120     15118     15124     15125     15126     15124     15121
     15121     15125     15121     15122     15121     15123     15126     15127
     15126     15128     15126     15129     15129     15130     15129     15137
     15129     15131     15137     15138     15137     15139     15137     15140
     15131     15132     15132     15134     15132     15133     15134     15135
     15134     15136     15134     15146     15146     15147     15146     15148
     15146     15149     15149     15150     15149     15151     15149     15152
     15152     15153     15152     15154     15152     15155     15155     15156
     15155     15157     15155     15158     15158     15159     15158     15160
     15158     15161     15161     15162     15161     15163     15161     15164
     15164     15165     15164     15166     15166     15167     15166     15168
     15168     15169     15168     15170     15168     15171     15171     15172
     15171     15173     15171     15174     15174     15175     15174     15176
     15174     15177     15177     15178     15177     15179     15177     15180
     15180     15181     15180     15182     15180     15183     15183     15184
     15183     15185     15183     15186     15186     15187     15186     15188
     15186     15189     15189     15190     15189     15191     15189     15192
     15140     15141     15141     15143     15141     15142     15143     15144
     15143     15145     15143     15193     15193     15194     15193     15195
     15193     15196     15196     15197     15196     15198     15196     15199
     15199     15200     15199     15201     15199     15202     15202     15203
     15202     15204     15202     15205     15205     15206     15205     15207
     15205     15208     15208     15209     15208     15210     15208     15211
     15211     15212     15211     15213     15211     15214     15214     15215
     15214     15216     15214     15217     15217     15218     15217     15219
     15217     15220     15220     15221     15220     15222     15220     15223
     15223     15224     15223     15225     15223     15226     15226     15227
     15226     15228     15226     15229     15229     15230     15229     15231
     15229     15232     15232     15233     15232     15234     15232     15235
     15236     15240     15236     15244     15236     15248     15240     15241
     15240     15242     15240     15243     15244     15245     15244     15246
     15244     15247     15248     15249     15248     15250     15248     15251
     15236     15237     15237     15238     15237     15239     15237     15252
     15252     15253     15252     15254     15252     15258     15259     15260
     15258     15255     15255     15259     15255     15256     15255     15257
     15260     15261     15260     15262     15260     15263     15263     15264
     15263     15271     15263     15265     15271     15272     15271     15273
     15271     15274     15265     15266     15266     15268     15266     15267
     15268     15269     15268     15270     15268     15280     15280     15281
     15280     15282     15280     15283     15283     15284     15283     15285
     15283     15286     15286     15287     15286     15288     15286     15289
     15289     15290     15289     15291     15289     15292     15292     15293
     15292     15294     15292     15295     15295     15296     15295     15297
     15295     15298     15298     15299     15298     15300     15300     15301
     15300     15302     15302     15303     15302     15304     15302     15305
     15305     15306     15305     15307     15305     15308     15308     15309
     15308     15310     15308     15311     15311     15312     15311     15313
     15311     15314     15314     15315     15314     15316     15314     15317
     15317     15318     15317     15319     15317     15320     15320     15321
     15320     15322     15320     15323     15323     15324     15323     15325
     15323     15326     15274     15275     15275     15277     15275     15276
     15277     15278     15277     15279     15277     15327     15327     15328
     15327     15329     15327     15330     15330     15331     15330     15332
     15330     15333     15333     15334     15333     15335     15333     15336
     15336     15337     15336     15338     15336     15339     15339     15340
     15339     15341     15339     15342     15342     15343     15342     15344
     15342     15345     15345     15346     15345     15347     15345     15348
     15348     15349     15348     15350     15348     15351     15351     15352
     15351     15353     15351     15354     15354     15355     15354     15356
     15354     15357     15357     15358     15357     15359     15357     15360
     15360     15361     15360     15362     15360     15363     15363     15364
     15363     15365     15363     15366     15366     15367     15366     15368
     15366     15369     15370     15374     15370     15378     15370     15382
     15374     15375     15374     15376     15374     15377     15378     15379
     15378     15380     15378     15381     15382     15383     15382     15384
     15382     15385     15370     15371     15371     15372     15371     15373
     15371     15386     15386     15387     15386     15388     15386     15392
     15393     15394     15392     15389     15389     15393     15389     15390
     15389     15391     15394     15395     15394     15396     15394     15397
     15397     15398     15397     15405     15397     15399     15405     15406
     15405     15407     15405     15408     15399     15400     15400     15402
     15400     15401     15402     15403     15402     15404     15402     15414
     15414     15415     15414     15416     15414     15417     15417     15418
     15417     15419     15417     15420     15420     15421     15420     15422
     15420     15423     15423     15424     15423     15425     15423     15426
     15426     15427     15426     15428     15426     15429     15429     15430
     15429     15431     15429     15432     15432     15433     15432     15434
     15434     15435     15434     15436     15436     15437     15436     15438
     15436     15439     15439     15440     15439     15441     15439     15442
     15442     15443     15442     15444     15442     15445     15445     15446
     15445     15447     15445     15448     15448     15449     15448     15450
     15448     15451     15451     15452     15451     15453     15451     15454
     15454     15455     15454     15456     15454     15457     15457     15458
     15457     15459     15457     15460     15408     15409     15409     15411
     15409     15410     15411     15412     15411     15413     15411     15461
     15461     15462     15461     15463     15461     15464     15464     15465
     15464     15466     15464     15467     15467     15468     15467     15469
     15467     15470     15470     15471     15470     15472     15470     15473
     15473     15474     15473     15475     15473     15476     15476     15477
     15476     15478     15476     15479     15479     15480     15479     15481
     15479     15482     15482     15483     15482     15484     15482     15485
     15485     15486     15485     15487     15485     15488     15488     15489
     15488     15490     15488     15491     15491     15492     15491     15493
     15491     15494     15494     15495     15494     15496     15494     15497
     15497     15498     15497     15499     15497     15500     15500     15501
     15500     15502     15500     15503     15504     15505     15504     15506
     15504     15507     15504     15508     15512     15510     15510     15508
     15510     15511     15508     15509     15508     15513     15521     15520
     15513     15514     15513     15515     15513     15519     15519     15516
     15516     15520     15516     15517     15516     15518     15521     15522
     15521     15523     15521     15524     15524     15525     15524     15532
     15524     15526     15532     15533     15532     15534     15532     15535
     15526     15527     15527     15529     15527     15528     15529     15530
     15529     15531     15529     15541     15541     15542     15541     15543
     15541     15544     15544     15545     15544     15546     15544     15547
     15547     15548     15547     15549     15547     15550     15550     15551
     15550     15552     15550     15553     15553     15554     15553     15555
     15553     15556     15556     15557     15556     15558     15556     15559
     15559     15560     15559     15561     15561     15562     15561     15563
     15563     15564     15563     15565     15563     15566     15566     15567
     15566     15568     15566     15569     15569     15570     15569     15571
     15569     15572     15572     15573     15572     15574     15572     15575
     15575     15576     15575     15577     15575     15578     15578     15579
     15578     15580     15578     15581     15581     15582     15581     15583
     15581     15584     15584     15585     15584     15586     15584     15587
     15535     15536     15536     15538     15536     15537     15538     15539
     15538     15540     15538     15588     15588     15589     15588     15590
     15588     15591     15591     15592     15591     15593     15591     15594
     15594     15595     15594     15596     15594     15597     15597     15598
     15597     15599     15597     15600     15600     15601     15600     15602
     15600     15603     15603     15604     15603     15605     15603     15606
     15606     15607     15606     15608     15606     15609     15609     15610
     15609     15611     15609     15612     15612     15613     15612     15614
     15612     15615     15615     15616     15615     15617     15615     15618
     15618     15619     15618     15620     15618     15621     15621     15622
     15621     15623     15621     15624     15624     15625     15624     15626
     15624     15627     15627     15628     15627     15629     15627     15630
     15631     15635     15631     15639     15631     15643     15635     15636
     15635     15637     15635     15638     15639     15640     15639     15641
     15639     15642     15643     15644     15643     15645     15643     15646
     15631     15632     15632     15633     15632     15634     15632     15647
     15647     15648     15647     15649     15647     15653     15654     15655
     15653     15650     15650     15654     15650     15651     15650     15652
     15655     15656     15655     15657     15655     15658     15658     15659
     15658     15666     15658     15660     15666     15667     15666     15668
     15666     15669     15660     15661     15661     15663     15661     15662
     15663     15664     15663     15665     15663     15675     15675     15676
     15675     15677     15675     15678     15678     15679     15678     15680
     15678     15681     15681     15682     15681     15683     15681     15684
     15684     15685     15684     15686     15684     15687     15687     15688
     15687     15689     15687     15690     15690     15691     15690     15692
     15690     15693     15693     15694     15693     15695     15695     15696
     15695     15697     15697     15698     15697     15699     15697     15700
     15700     15701     15700     15702     15700     15703     15703     15704
     15703     15705     15703     15706     15706     15707     15706     15708
     15706     15709     15709     15710     15709     15711     15709     15712
     15712     15713     15712     15714     15712     15715     15715     15716
     15715     15717     15715     15718     15718     15719     15718     15720
     15718     15721     15669     15670     15670     15672     15670     15671
     15672     15673     15672     15674     15672     15722     15722     15723
     15722     15724     15722     15725     15725     15726     15725     15727
     15725     15728     15728     15729     15728     15730     15728     15731
     15731     15732     15731     15733     15731     15734     15734     15735
     15734     15736     15734     15737     15737     15738     15737     15739
     15737     15740     15740     15741     15740     15742     15740     15743
     15743     15744     15743     15745     15743     15746     15746     15747
     15746     15748     15746     15749     15749     15750     15749     15751
     15749     15752     15752     15753     15752     15754     15752     15755
     15755     15756     15755     15757     15755     15758     15758     15759
     15758     15760     15758     15761     15761     15762     15761     15763
     15761     15764     15765     15769     15765     15773     15765     15777
     15769     15770     15769     15771     15769     15772     15773     15774
     15773     15775     15773     15776     15777     15778     15777     15779
     15777     15780     15765     15766     15766     15767     15766     15768
     15766     15781     15781     15782     15781     15783     15781     15787
     15788     15789     15787     15784     15784     15788     15784     15785
     15784     15786     15789     15790     15789     15791     15789     15792
     15792     15793     15792     15800     15792     15794     15800     15801
     15800     15802     15800     15803     15794     15795     15795     15797
     15795     15796     15797     15798     15797     15799     15797     15809
     15809     15810     15809     15811     15809     15812     15812     15813
     15812     15814     15812     15815     15815     15816     15815     15817
     15815     15818     15818     15819     15818     15820     15818     15821
     15821     15822     15821     15823     15821     15824     15824     15825
     15824     15826     15824     15827     15827     15828     15827     15829
     15829     15830     15829     15831     15831     15832     15831     15833
     15831     15834     15834     15835     15834     15836     15834     15837
     15837     15838     15837     15839     15837     15840     15840     15841
     15840     15842     15840     15843     15843     15844     15843     15845
     15843     15846     15846     15847     15846     15848     15846     15849
     15849     15850     15849     15851     15849     15852     15852     15853
     15852     15854     15852     15855     15803     15804     15804     15806
     15804     15805     15806     15807     15806     15808     15806     15856
     15856     15857     15856     15858     15856     15859     15859     15860
     15859     15861     15859     15862     15862     15863     15862     15864
     15862     15865     15865     15866     15865     15867     15865     15868
     15868     15869     15868     15870     15868     15871     15871     15872
     15871     15873     15871     15874     15874     15875     15874     15876
     15874     15877     15877     15878     15877     15879     15877     15880
     15880     15881     15880     15882     15880     15883     15883     15884
     15883     15885     15883     15886     15886     15887     15886     15888
     15886     15889     15889     15890     15889     15891     15889     15892
     15892     15893     15892     15894     15892     15895     15895     15896
     15895     15897     15895     15898     15899     15903     15899     15907
     15899     15911     15903     15904     15903     15905     15903     15906
     15907     15908     15907     15909     15907     15910     15911     15912
     15911     15913     15911     15914     15899     15900     15900     15901
     15900     15902     15900     15915     15915     15916     15915     15917
     15915     15921     15922     15923     15921     15918     15918     15922
     15918     15919     15918     15920     15923     15924     15923     15925
     15923     15926     15926     15927     15926     15934     15926     15928
     15934     15935     15934     15936     15934     15937     15928     15929
     15929     15931     15929     15930     15931     15932     15931     15933
     15931     15943     15943     15944     15943     15945     15943     15946
     15946     15947     15946     15948     15946     15949     15949     15950
     15949     15951     15949     15952     15952     15953     15952     15954
     15952     15955     15955     15956     15955     15957     15955     15958
     15958     15959     15958     15960     15958     15961     15961     15962
     15961     15963     15963     15964     15963     15965     15965     15966
     15965     15967     15965     15968     15968     15969     15968     15970
     15968     15971     15971     15972     15971     15973     15971     15974
     15974     15975     15974     15976     15974     15977     15977     15978
     15977     15979     15977     15980     15980     15981     15980     15982
     15980     15983     15983     15984     15983     15985     15983     15986
     15986     15987     15986     15988     15986     15989     15937     15938
     15938     15940     15938     15939     15940     15941     15940     15942
     15940     15990     15990     15991     15990     15992     15990     15993
     15993     15994     15993     15995     15993     15996     15996     15997
     15996     15998     15996     15999     15999     16000     15999     16001
     15999     16002     16002     16003     16002     16004     16002     16005
     16005     16006     16005     16007     16005     16008     16008     16009
     16008     16010     16008     16011     16011     16012     16011     16013
     16011     16014     16014     16015     16014     16016     16014     16017
     16017     16018     16017     16019     16017     16020     16020     16021
     16020     16022     16020     16023     16023     16024     16023     16025
     16023     16026     16026     16027     16026     16028     16026     16029
     16029     16030     16029     16031     16029     16032     16033     16037
     16033     16041     16033     16045     16037     16038     16037     16039
     16037     16040     16041     16042     16041     16043     16041     16044
     16045     16046     16045     16047     16045     16048     16033     16034
     16034     16035     16034     16036     16034     16049     16049     16050
     16049     16051     16049     16055     16056     16057     16055     16052
     16052     16056     16052     16053     16052     16054     16057     16058
     16057     16059     16057     16060     16060     16061     16060     16068
     16060     16062     16068     16069     16068     16070     16068     16071
     16062     16063     16063     16065     16063     16064     16065     16066
     16065     16067     16065     16077     16077     16078     16077     16079
     16077     16080     16080     16081     16080     16082     16080     16083
     16083     16084     16083     16085     16083     16086     16086     16087
     16086     16088     16086     16089     16089     16090     16089     16091
     16089     16092     16092     16093     16092     16094     16092     16095
     16095     16096     16095     16097     16097     16098     16097     16099
     16099     16100     16099     16101     16099     16102     16102     16103
     16102     16104     16102     16105     16105     16106     16105     16107
     16105     16108     16108     16109     16108     16110     16108     16111
     16111     16112     16111     16113     16111     16114     16114     16115
     16114     16116     16114     16117     16117     16118     16117     16119
     16117     16120     16120     16121     16120     16122     16120     16123
     16071     16072     16072     16074     16072     16073     16074     16075
     16074     16076     16074     16124     16124     16125     16124     16126
     16124     16127     16127     16128     16127     16129     16127     16130
     16130     16131     16130     16132     16130     16133     16133     16134
     16133     16135     16133     16136     16136     16137     16136     16138
     16136     16139     16139     16140     16139     16141     16139     16142
     16142     16143     16142     16144     16142     16145     16145     16146
     16145     16147     16145     16148     16148     16149     16148     16150
     16148     16151     16151     16152     16151     16153     16151     16154
     16154     16155     16154     16156     16154     16157     16157     16158
     16157     16159     16157     16160     16160     16161     16160     16162
     16160     16163     16163     16164     16163     16165     16163     16166
     16167     16171     16167     16175     16167     16179     16171     16172
     16171     16173     16171     16174     16175     16176     16175     16177
     16175     16178     16179     16180     16179     16181     16179     16182
     16167     16168     16168     16169     16168     16170     16168     16183
     16183     16184     16183     16185     16183     16189     16190     16191
     16189     16186     16186     16190     16186     16187     16186     16188
     16191     16192     16191     16193     16191     16194     16194     16195
     16194     16202     16194     16196     16202     16203     16202     16204
     16202     16205     16196     16197     16197     16199     16197     16198
     16199     16200     16199     16201     16199     16211     16211     16212
     16211     16213     16211     16214     16214     16215     16214     16216
     16214     16217     16217     16218     16217     16219     16217     16220
     16220     16221     16220     16222     16220     16223     16223     16224
     16223     16225     16223     16226     16226     16227     16226     16228
     16226     16229     16229     16230     16229     16231     16231     16232
     16231     16233     16233     16234     16233     16235     16233     16236
     16236     16237     16236     16238     16236     16239     16239     16240
     16239     16241     16239     16242     16242     16243     16242     16244
     16242     16245     16245     16246     16245     16247     16245     16248
     16248     16249     16248     16250     16248     16251     16251     16252
     16251     16253     16251     16254     16254     16255     16254     16256
     16254     16257     16205     16206     16206     16208     16206     16207
     16208     16209     16208     16210     16208     16258     16258     16259
     16258     16260     16258     16261     16261     16262     16261     16263
     16261     16264     16264     16265     16264     16266     16264     16267
     16267     16268     16267     16269     16267     16270     16270     16271
     16270     16272     16270     16273     16273     16274     16273     16275
     16273     16276     16276     16277     16276     16278     16276     16279
     16279     16280     16279     16281     16279     16282     16282     16283
     16282     16284     16282     16285     16285     16286     16285     16287
     16285     16288     16288     16289     16288     16290     16288     16291
     16291     16292     16291     16293     16291     16294     16294     16295
     16294     16296     16294     16297     16297     16298     16297     16299
     16297     16300     16301     16305     16301     16309     16301     16313
     16305     16306     16305     16307     16305     16308     16309     16310
     16309     16311     16309     16312     16313     16314     16313     16315
     16313     16316     16301     16302     16302     16303     16302     16304
     16302     16317     16317     16318     16317     16319     16317     16323
     16324     16325     16323     16320     16320     16324     16320     16321
     16320     16322     16325     16326     16325     16327     16325     16328
     16328     16329     16328     16336     16328     16330     16336     16337
     16336     16338     16336     16339     16330     16331     16331     16333
     16331     16332     16333     16334     16333     16335     16333     16345
     16345     16346     16345     16347     16345     16348     16348     16349
     16348     16350     16348     16351     16351     16352     16351     16353
     16351     16354     16354     16355     16354     16356     16354     16357
     16357     16358     16357     16359     16357     16360     16360     16361
     16360     16362     16360     16363     16363     16364     16363     16365
     16365     16366     16365     16367     16367     16368     16367     16369
     16367     16370     16370     16371     16370     16372     16370     16373
     16373     16374     16373     16375     16373     16376     16376     16377
     16376     16378     16376     16379     16379     16380     16379     16381
     16379     16382     16382     16383     16382     16384     16382     16385
     16385     16386     16385     16387     16385     16388     16388     16389
     16388     16390     16388     16391     16339     16340     16340     16342
     16340     16341     16342     16343     16342     16344     16342     16392
     16392     16393     16392     16394     16392     16395     16395     16396
     16395     16397     16395     16398     16398     16399     16398     16400
     16398     16401     16401     16402     16401     16403     16401     16404
     16404     16405     16404     16406     16404     16407     16407     16408
     16407     16409     16407     16410     16410     16411     16410     16412
     16410     16413     16413     16414     16413     16415     16413     16416
     16416     16417     16416     16418     16416     16419     16419     16420
     16419     16421     16419     16422     16422     16423     16422     16424
     16422     16425     16425     16426     16425     16427     16425     16428
     16428     16429     16428     16430     16428     16431     16431     16432
     16431     16433     16431     16434     16435     16439     16435     16443
     16435     16447     16439     16440     16439     16441     16439     16442
     16443     16444     16443     16445     16443     16446     16447     16448
     16447     16449     16447     16450     16435     16436     16436     16437
     16436     16438     16436     16451     16451     16452     16451     16453
     16451     16457     16458     16459     16457     16454     16454     16458
     16454     16455     16454     16456     16459     16460     16459     16461
     16459     16462     16462     16463     16462     16470     16462     16464
     16470     16471     16470     16472     16470     16473     16464     16465
     16465     16467     16465     16466     16467     16468     16467     16469
     16467     16479     16479     16480     16479     16481     16479     16482
     16482     16483     16482     16484     16482     16485     16485     16486
     16485     16487     16485     16488     16488     16489     16488     16490
     16488     16491     16491     16492     16491     16493     16491     16494
     16494     16495     16494     16496     16494     16497     16497     16498
     16497     16499     16499     16500     16499     16501     16501     16502
     16501     16503     16501     16504     16504     16505     16504     16506
     16504     16507     16507     16508     16507     16509     16507     16510
     16510     16511     16510     16512     16510     16513     16513     16514
     16513     16515     16513     16516     16516     16517     16516     16518
     16516     16519     16519     16520     16519     16521     16519     16522
     16522     16523     16522     16524     16522     16525     16473     16474
     16474     16476     16474     16475     16476     16477     16476     16478
     16476     16526     16526     16527     16526     16528     16526     16529
     16529     16530     16529     16531     16529     16532     16532     16533
     16532     16534     16532     16535     16535     16536     16535     16537
     16535     16538     16538     16539     16538     16540     16538     16541
     16541     16542     16541     16543     16541     16544     16544     16545
     16544     16546     16544     16547     16547     16548     16547     16549
     16547     16550     16550     16551     16550     16552     16550     16553
     16553     16554     16553     16555     16553     16556     16556     16557
     16556     16558     16556     16559     16559     16560     16559     16561
     16559     16562     16562     16563     16562     16564     16562     16565
     16565     16566     16565     16567     16565     16568     16569     16573
     16569     16577     16569     16581     16573     16574     16573     16575
     16573     16576     16577     16578     16577     16579     16577     16580
     16581     16582     16581     16583     16581     16584     16569     16570
     16570     16571     16570     16572     16570     16585     16585     16586
     16585     16587     16585     16591     16592     16593     16591     16588
     16588     16592     16588     16589     16588     16590     16593     16594
     16593     16595     16593     16596     16596     16597     16596     16604
     16596     16598     16604     16605     16604     16606     16604     16607
     16598     16599     16599     16601     16599     16600     16601     16602
     16601     16603     16601     16613     16613     16614     16613     16615
     16613     16616     16616     16617     16616     16618     16616     16619
     16619     16620     16619     16621     16619     16622     16622     16623
     16622     16624     16622     16625     16625     16626     16625     16627
     16625     16628     16628     16629     16628     16630     16628     16631
     16631     16632     16631     16633     16633     16634     16633     16635
     16635     16636     16635     16637     16635     16638     16638     16639
     16638     16640     16638     16641     16641     16642     16641     16643
     16641     16644     16644     16645     16644     16646     16644     16647
     16647     16648     16647     16649     16647     16650     16650     16651
     16650     16652     16650     16653     16653     16654     16653     16655
     16653     16656     16656     16657     16656     16658     16656     16659
     16607     16608     16608     16610     16608     16609     16610     16611
     16610     16612     16610     16660     16660     16661     16660     16662
     16660     16663     16663     16664     16663     16665     16663     16666
     16666     16667     16666     16668     16666     16669     16669     16670
     16669     16671     16669     16672     16672     16673     16672     16674
     16672     16675     16675     16676     16675     16677     16675     16678
     16678     16679     16678     16680     16678     16681     16681     16682
     16681     16683     16681     16684     16684     16685     16684     16686
     16684     16687     16687     16688     16687     16689     16687     16690
     16690     16691     16690     16692     16690     16693     16693     16694
     16693     16695     16693     16696     16696     16697     16696     16698
     16696     16699     16699     16700     16699     16701     16699     16702
     16703     16707     16703     16711     16703     16715     16707     16708
     16707     16709     16707     16710     16711     16712     16711     16713
     16711     16714     16715     16716     16715     16717     16715     16718
     16703     16704     16704     16705     16704     16706     16704     16719
     16719     16720     16719     16721     16719     16725     16726     16727
     16725     16722     16722     16726     16722     16723     16722     16724
     16727     16728     16727     16729     16727     16730     16730     16731
     16730     16738     16730     16732     16738     16739     16738     16740
     16738     16741     16732     16733     16733     16735     16733     16734
     16735     16736     16735     16737     16735     16747     16747     16748
     16747     16749     16747     16750     16750     16751     16750     16752
     16750     16753     16753     16754     16753     16755     16753     16756
     16756     16757     16756     16758     16756     16759     16759     16760
     16759     16761     16759     16762     16762     16763     16762     16764
     16762     16765     16765     16766     16765     16767     16767     16768
     16767     16769     16769     16770     16769     16771     16769     16772
     16772     16773     16772     16774     16772     16775     16775     16776
     16775     16777     16775     16778     16778     16779     16778     16780
     16778     16781     16781     16782     16781     16783     16781     16784
     16784     16785     16784     16786     16784     16787     16787     16788
     16787     16789     16787     16790     16790     16791     16790     16792
     16790     16793     16741     16742     16742     16744     16742     16743
     16744     16745     16744     16746     16744     16794     16794     16795
     16794     16796     16794     16797     16797     16798     16797     16799
     16797     16800     16800     16801     16800     16802     16800     16803
     16803     16804     16803     16805     16803     16806     16806     16807
     16806     16808     16806     16809     16809     16810     16809     16811
     16809     16812     16812     16813     16812     16814     16812     16815
     16815     16816     16815     16817     16815     16818     16818     16819
     16818     16820     16818     16821     16821     16822     16821     16823
     16821     16824     16824     16825     16824     16826     16824     16827
     16827     16828     16827     16829     16827     16830     16830     16831
     16830     16832     16830     16833     16833     16834     16833     16835
     16833     16836     16837     16841     16837     16845     16837     16849
     16841     16842     16841     16843     16841     16844     16845     16846
     16845     16847     16845     16848     16849     16850     16849     16851
     16849     16852     16837     16838     16838     16839     16838     16840
     16838     16853     16853     16854     16853     16855     16853     16859
     16860     16861     16859     16856     16856     16860     16856     16857
     16856     16858     16861     16862     16861     16863     16861     16864
     16864     16865     16864     16872     16864     16866     16872     16873
     16872     16874     16872     16875     16866     16867     16867     16869
     16867     16868     16869     16870     16869     16871     16869     16881
     16881     16882     16881     16883     16881     16884     16884     16885
     16884     16886     16884     16887     16887     16888     16887     16889
     16887     16890     16890     16891     16890     16892     16890     16893
     16893     16894     16893     16895     16893     16896     16896     16897
     16896     16898     16896     16899     16899     16900     16899     16901
     16901     16902     16901     16903     16903     16904     16903     16905
     16903     16906     16906     16907     16906     16908     16906     16909
     16909     16910     16909     16911     16909     16912     16912     16913
     16912     16914     16912     16915     16915     16916     16915     16917
     16915     16918     16918     16919     16918     16920     16918     16921
     16921     16922     16921     16923     16921     16924     16924     16925
     16924     16926     16924     16927     16875     16876     16876     16878
     16876     16877     16878     16879     16878     16880     16878     16928
     16928     16929     16928     16930     16928     16931     16931     16932
     16931     16933     16931     16934     16934     16935     16934     16936
     16934     16937     16937     16938     16937     16939     16937     16940
     16940     16941     16940     16942     16940     16943     16943     16944
     16943     16945     16943     16946     16946     16947     16946     16948
     16946     16949     16949     16950     16949     16951     16949     16952
     16952     16953     16952     16954     16952     16955     16955     16956
     16955     16957     16955     16958     16958     16959     16958     16960
     16958     16961     16961     16962     16961     16963     16961     16964
     16964     16965     16964     16966     16964     16967     16967     16968
     16967     16969     16967     16970     16971     16975     16971     16979
     16971     16983     16975     16976     16975     16977     16975     16978
     16979     16980     16979     16981     16979     16982     16983     16984
     16983     16985     16983     16986     16971     16972     16972     16973
     16972     16974     16972     16987     16987     16988     16987     16989
     16987     16993     16994     16995     16993     16990     16990     16994
     16990     16991     16990     16992     16995     16996     16995     16997
     16995     16998     16998     16999     16998     17006     16998     17000
     17006     17007     17006     17008     17006     17009     17000     17001
     17001     17003     17001     17002     17003     17004     17003     17005
     17003     17015     17015     17016     17015     17017     17015     17018
     17018     17019     17018     17020     17018     17021     17021     17022
     17021     17023     17021     17024     17024     17025     17024     17026
     17024     17027     17027     17028     17027     17029     17027     17030
     17030     17031     17030     17032     17030     17033     17033     17034
     17033     17035     17035     17036     17035     17037     17037     17038
     17037     17039     17037     17040     17040     17041     17040     17042
     17040     17043     17043     17044     17043     17045     17043     17046
     17046     17047     17046     17048     17046     17049     17049     17050
     17049     17051     17049     17052     17052     17053     17052     17054
     17052     17055     17055     17056     17055     17057     17055     17058
     17058     17059     17058     17060     17058     17061     17009     17010
     17010     17012     17010     17011     17012     17013     17012     17014
     17012     17062     17062     17063     17062     17064     17062     17065
     17065     17066     17065     17067     17065     17068     17068     17069
     17068     17070     17068     17071     17071     17072     17071     17073
     17071     17074     17074     17075     17074     17076     17074     17077
     17077     17078     17077     17079     17077     17080     17080     17081
     17080     17082     17080     17083     17083     17084     17083     17085
     17083     17086     17086     17087     17086     17088     17086     17089
     17089     17090     17089     17091     17089     17092     17092     17093
     17092     17094     17092     17095     17095     17096     17095     17097
     17095     17098     17098     17099     17098     17100     17098     17101
     17101     17102     17101     17103     17101     17104     17105     17109
     17105     17113     17105     17117     17109     17110     17109     17111
     17109     17112     17113     17114     17113     17115     17113     17116
     17117     17118     17117     17119     17117     17120     17105     17106
     17106     17107     17106     17108     17106     17121     17121     17122
     17121     17123     17121     17127     17128     17129     17127     17124
     17124     17128     17124     17125     17124     17126     17129     17130
     17129     17131     17129     17132     17132     17133     17132     17140
     17132     17134     17140     17141     17140     17142     17140     17143
     17134     17135     17135     17137     17135     17136     17137     17138
     17137     17139     17137     17149     17149     17150     17149     17151
     17149     17152     17152     17153     17152     17154     17152     17155
     17155     17156     17155     17157     17155     17158     17158     17159
     17158     17160     17158     17161     17161     17162     17161     17163
     17161     17164     17164     17165     17164     17166     17164     17167
     17167     17168     17167     17169     17169     17170     17169     17171
     17171     17172     17171     17173     17171     17174     17174     17175
     17174     17176     17174     17177     17177     17178     17177     17179
     17177     17180     17180     17181     17180     17182     17180     17183
     17183     17184     17183     17185     17183     17186     17186     17187
     17186     17188     17186     17189     17189     17190     17189     17191
     17189     17192     17192     17193     17192     17194     17192     17195
     17143     17144     17144     17146     17144     17145     17146     17147
     17146     17148     17146     17196     17196     17197     17196     17198
     17196     17199     17199     17200     17199     17201     17199     17202
     17202     17203     17202     17204     17202     17205     17205     17206
     17205     17207     17205     17208     17208     17209     17208     17210
     17208     17211     17211     17212     17211     17213     17211     17214
     17214     17215     17214     17216     17214     17217     17217     17218
     17217     17219     17217     17220     17220     17221     17220     17222
     17220     17223     17223     17224     17223     17225     17223     17226
     17226     17227     17226     17228     17226     17229     17229     17230
     17229     17231     17229     17232     17232     17233     17232     17234
     17232     17235     17235     17236     17235     17237     17235     17238

     32890 !NTHETA: angles
         1         2         3         1         2         4         1         2        17
         1         5         6         1         5         7         1         5         8
         1         9        10         1         9        11         1         9        12
         1        13        14         1        13        15         1        13        16
         2         1         5         2         1         9         2         1        13
         2        17        18         2        17        19         2        17        23
         3         2         4         3         2        17         4         2        17
         5         1         9         5         1        13         6         5         7
         6         5         8         7         5         8         9         1        13
        10         9        11        10         9        12        11         9        12
        14        13        15        14        13        16        15        13        16
        17        23        20        18        17        19        18        17        23
        19        17        23        20        24        25        21        20        22
        21        20        23        21        20        24        22        20        23
        22        20        24        23        20        24        24        25        26
        24        25        27        24        25        28        25        28        29
        25        28        30        25        28        36        26        25        27
        26        25        28        27        25        28        28        30        31
        28        36        37        28        36        38        28        36        39
        29        28        30        29        28        36        30        28        36
        30        31        32        30        31        33        31        33        34
        31        33        35        31        33        45        32        31        33
        33        45        46        33        45        47        33        45        48
        34        33        35        34        33        45        35        33        45
        36        39        40        37        36        38        37        36        39
        38        36        39        39        40        41        39        40        42
        40        42        43        40        42        44        40        42        92
        41        40        42        42        92        93        42        92        94
        42        92        95        43        42        44        43        42        92
        44        42        92        45        48        49        45        48        50
        45        48        51        46        45        47        46        45        48
        47        45        48        48        51        52        48        51        53
        48        51        54        49        48        50        49        48        51
        50        48        51        51        54        55        51        54        56
        51        54        57        52        51        53        52        51        54
        53        51        54        54        57        58        54        57        59
        54        57        60        55        54        56        55        54        57
        56        54        57        57        60        61        57        60        62
        57        60        63        58        57        59        58        57        60
        59        57        60        60        63        64        60        63        65
        61        60        62        61        60        63        62        60        63
        63        65        66        63        65        67        64        63        65
        65        67        68        65        67        69        65        67        70
        66        65        67        67        70        71        67        70        72
        67        70        73        68        67        69        68        67        70
        69        67        70        70        73        74        70        73        75
        70        73        76        71        70        72        71        70        73
        72        70        73        73        76        77        73        76        78
        73        76        79        74        73        75        74        73        76
        75        73        76        76        79        80        76        79        81
        76        79        82        77        76        78        77        76        79
        78        76        79        79        82        83        79        82        84
        79        82        85        80        79        81        80        79        82
        81        79        82        82        85        86        82        85        87
        82        85        88        83        82        84        83        82        85
        84        82        85        85        88        89        85        88        90
        85        88        91        86        85        87        86        85        88
        87        85        88        89        88        90        89        88        91
        90        88        91        92        95        96        92        95        97
        92        95        98        93        92        94        93        92        95
        94        92        95        95        98        99        95        98       100
        95        98       101        96        95        97        96        95        98
        97        95        98        98       101       102        98       101       103
        98       101       104        99        98       100        99        98       101
       100        98       101       101       104       105       101       104       106
       101       104       107       102       101       103       102       101       104
       103       101       104       104       107       108       104       107       109
       104       107       110       105       104       106       105       104       107
       106       104       107       107       110       111       107       110       112
       107       110       113       108       107       109       108       107       110
       109       107       110       110       113       114       110       113       115
       110       113       116       111       110       112       111       110       113
       112       110       113       113       116       117       113       116       118
       113       116       119       114       113       115       114       113       116
       115       113       116       116       119       120       116       119       121
       116       119       122       117       116       118       117       116       119
       118       116       119       119       122       123       119       122       124
       119       122       125       120       119       121       120       119       122
       121       119       122       122       125       126       122       125       127
       122       125       128       123       122       124       123       122       125
       124       122       125       125       128       129       125       128       130
       125       128       131       126       125       127       126       125       128
       127       125       128       128       131       132       128       131       133
       128       131       134       129       128       130       129       128       131
       130       128       131       132       131       133       132       131       134
       133       131       134       135       139       140       135       139       141
       135       139       144       136       135       137       136       135       138
       136       135       139       137       135       138       137       135       139
       138       135       139       139       141       142       139       141       143
       139       144       145       139       144       146       139       144       150
       140       139       141       140       139       144       141       139       144
       142       141       143       144       150       147       145       144       146
       145       144       150       146       144       150       147       151       152
       148       147       149       148       147       150       148       147       151
       149       147       150       149       147       151       150       147       151
       151       152       153       151       152       154       151       152       155
       152       155       156       152       155       157       152       155       163
       153       152       154       153       152       155       154       152       155
       155       157       158       155       163       164       155       163       165
       155       163       166       156       155       157       156       155       163
       157       155       163       157       158       159       157       158       160
       158       160       161       158       160       162       158       160       172
       159       158       160       160       172       173       160       172       174
       160       172       175       161       160       162       161       160       172
       162       160       172       163       166       167       164       163       165
       164       163       166       165       163       166       166       167       168
       166       167       169       167       169       170       167       169       171
       167       169       219       168       167       169       169       219       220
       169       219       221       169       219       222       170       169       171
       170       169       219       171       169       219       172       175       176
       172       175       177       172       175       178       173       172       174
       173       172       175       174       172       175       175       178       179
       175       178       180       175       178       181       176       175       177
       176       175       178       177       175       178       178       181       182
       178       181       183       178       181       184       179       178       180
       179       178       181       180       178       181       181       184       185
       181       184       186       181       184       187       182       181       183
       182       181       184       183       181       184       184       187       188
       184       187       189       184       187       190       185       184       186
       185       184       187       186       184       187       187       190       191
       187       190       192       188       187       189       188       187       190
       189       187       190       190       192       193       190       192       194
       191       190       192       192       194       195       192       194       196
       192       194       197       193       192       194       194       197       198
       194       197       199       194       197       200       195       194       196
       195       194       197       196       194       197       197       200       201
       197       200       202       197       200       203       198       197       199
       198       197       200       199       197       200       200       203       204
       200       203       205       200       203       206       201       200       202
       201       200       203       202       200       203       203       206       207
       203       206       208       203       206       209       204       203       205
       204       203       206       205       203       206       206       209       210
       206       209       211       206       209       212       207       206       208
       207       206       209       208       206       209       209       212       213
       209       212       214       209       212       215       210       209       211
       210       209       212       211       209       212       212       215       216
       212       215       217       212       215       218       213       212       214
       213       212       215       214       212       215       216       215       217
       216       215       218       217       215       218       219       222       223
       219       222       224       219       222       225       220       219       221
       220       219       222       221       219       222       222       225       226
       222       225       227       222       225       228       223       222       224
       223       222       225       224       222       225       225       228       229
       225       228       230       225       228       231       226       225       227
       226       225       228       227       225       228       228       231       232
       228       231       233       228       231       234       229       228       230
       229       228       231       230       228       231       231       234       235
       231       234       236       231       234       237       232       231       233
       232       231       234       233       231       234       234       237       238
       234       237       239       234       237       240       235       234       236
       235       234       237       236       234       237       237       240       241
       237       240       242       237       240       243       238       237       239
       238       237       240       239       237       240       240       243       244
       240       243       245       240       243       246       241       240       242
       241       240       243       242       240       243       243       246       247
       243       246       248       243       246       249       244       243       245
       244       243       246       245       243       246       246       249       250
       246       249       251       246       249       252       247       246       248
       247       246       249       248       246       249       249       252       253
       249       252       254       249       252       255       250       249       251
       250       249       252       251       249       252       252       255       256
       252       255       257       252       255       258       253       252       254
       253       252       255       254       252       255       255       258       259
       255       258       260       255       258       261       256       255       257
       256       255       258       257       255       258       259       258       260
       259       258       261       260       258       261       262       266       267
       262       266       268       262       266       271       263       262       264
       263       262       265       263       262       266       264       262       265
       264       262       266       265       262       266       266       268       269
       266       268       270       266       271       272       266       271       273
       266       271       277       267       266       268       267       266       271
       268       266       271       269       268       270       271       277       274
       272       271       273       272       271       277       273       271       277
       274       278       279       275       274       276       275       274       277
       275       274       278       276       274       277       276       274       278
       277       274       278       278       279       280       278       279       281
       278       279       282       279       282       283       279       282       284
       279       282       290       280       279       281       280       279       282
       281       279       282       282       284       285       282       290       291
       282       290       292       282       290       293       283       282       284
       283       282       290       284       282       290       284       285       286
       284       285       287       285       287       288       285       287       289
       285       287       299       286       285       287       287       299       300
       287       299       301       287       299       302       288       287       289
       288       287       299       289       287       299       290       293       294
       291       290       292       291       290       293       292       290       293
       293       294       295       293       294       296       294       296       297
       294       296       298       294       296       346       295       294       296
       296       346       347       296       346       348       296       346       349
       297       296       298       297       296       346       298       296       346
       299       302       303       299       302       304       299       302       305
       300       299       301       300       299       302       301       299       302
       302       305       306       302       305       307       302       305       308
       303       302       304       303       302       305       304       302       305
       305       308       309       305       308       310       305       308       311
       306       305       307       306       305       308       307       305       308
       308       311       312       308       311       313       308       311       314
       309       308       310       309       308       311       310       308       311
       311       314       315       311       314       316       311       314       317
       312       311       313       312       311       314       313       311       314
       314       317       318       314       317       319       315       314       316
       315       314       317       316       314       317       317       319       320
       317       319       321       318       317       319       319       321       322
       319       321       323       319       321       324       320       319       321
       321       324       325       321       324       326       321       324       327
       322       321       323       322       321       324       323       321       324
       324       327       328       324       327       329       324       327       330
       325       324       326       325       324       327       326       324       327
       327       330       331       327       330       332       327       330       333
       328       327       329       328       327       330       329       327       330
       330       333       334       330       333       335       330       333       336
       331       330       332       331       330       333       332       330       333
       333       336       337       333       336       338       333       336       339
       334       333       335       334       333       336       335       333       336
       336       339       340       336       339       341       336       339       342
       337       336       338       337       336       339       338       336       339
       339       342       343       339       342       344       339       342       345
       340       339       341       340       339       342       341       339       342
       343       342       344       343       342       345       344       342       345
       346       349       350       346       349       351       346       349       352
       347       346       348       347       346       349       348       346       349
       349       352       353       349       352       354       349       352       355
       350       349       351       350       349       352       351       349       352
       352       355       356       352       355       357       352       355       358
       353       352       354       353       352       355       354       352       355
       355       358       359       355       358       360       355       358       361
       356       355       357       356       355       358       357       355       358
       358       361       362       358       361       363       358       361       364
       359       358       360       359       358       361       360       358       361
       361       364       365       361       364       366       361       364       367
       362       361       363       362       361       364       363       361       364
       364       367       368       364       367       369       364       367       370
       365       364       366       365       364       367       366       364       367
       367       370       371       367       370       372       367       370       373
       368       367       369       368       367       370       369       367       370
       370       373       374       370       373       375       370       373       376
       371       370       372       371       370       373       372       370       373
       373       376       377       373       376       378       373       376       379
       374       373       375       374       373       376       375       373       376
       376       379       380       376       379       381       376       379       382
       377       376       378       377       376       379       378       376       379
       379       382       383       379       382       384       379       382       385
       380       379       381       380       379       382       381       379       382
       382       385       386       382       385       387       382       385       388
       383       382       384       383       382       385       384       382       385
       386       385       387       386       385       388       387       385       388
       389       390       391       389       390       392       389       390       405
       389       393       394       389       393       395       389       393       396
       389       397       398       389       397       399       389       397       400
       389       401       402       389       401       403       389       401       404
       390       389       393       390       389       397       390       389       401
       390       405       406       390       405       407       390       405       411
       391       390       392       391       390       405       392       390       405
       393       389       397       393       389       401       394       393       395
       394       393       396       395       393       396       397       389       401
       398       397       399       398       397       400       399       397       400
       402       401       403       402       401       404       403       401       404
       405       411       408       406       405       407       406       405       411
       407       405       411       408       412       413       409       408       410
       409       408       411       409       408       412       410       408       411
       410       408       412       411       408       412       412       413       414
       412       413       415       412       413       416       413       416       417
       413       416       418       413       416       424       414       413       415
       414       413       416       415       413       416       416       418       419
       416       424       425       416       424       426       416       424       427
       417       416       418       417       416       424       418       416       424
       418       419       420       418       419       421       419       421       422
       419       421       423       419       421       433       420       419       421
       421       433       434       421       433       435       421       433       436
       422       421       423       422       421       433       423       421       433
       424       427       428       425       424       426       425       424       427
       426       424       427       427       428       429       427       428       430
       428       430       431       428       430       432       428       430       480
       429       428       430       430       480       481       430       480       482
       430       480       483       431       430       432       431       430       480
       432       430       480       433       436       437       433       436       438
       433       436       439       434       433       435       434       433       436
       435       433       436       436       439       440       436       439       441
       436       439       442       437       436       438       437       436       439
       438       436       439       439       442       443       439       442       444
       439       442       445       440       439       441       440       439       442
       441       439       442       442       445       446       442       445       447
       442       445       448       443       442       444       443       442       445
       444       442       445       445       448       449       445       448       450
       445       448       451       446       445       447       446       445       448
       447       445       448       448       451       452       448       451       453
       449       448       450       449       448       451       450       448       451
       451       453       454       451       453       455       452       451       453
       453       455       456       453       455       457       453       455       458
       454       453       455       455       458       459       455       458       460
       455       458       461       456       455       457       456       455       458
       457       455       458       458       461       462       458       461       463
       458       461       464       459       458       460       459       458       461
       460       458       461       461       464       465       461       464       466
       461       464       467       462       461       463       462       461       464
       463       461       464       464       467       468       464       467       469
       464       467       470       465       464       466       465       464       467
       466       464       467       467       470       471       467       470       472
       467       470       473       468       467       469       468       467       470
       469       467       470       470       473       474       470       473       475
       470       473       476       471       470       472       471       470       473
       472       470       473       473       476       477       473       476       478
       473       476       479       474       473       475       474       473       476
       475       473       476       477       476       478       477       476       479
       478       476       479       480       483       484       480       483       485
       480       483       486       481       480       482       481       480       483
       482       480       483       483       486       487       483       486       488
       483       486       489       484       483       485       484       483       486
       485       483       486       486       489       490       486       489       491
       486       489       492       487       486       488       487       486       489
       488       486       489       489       492       493       489       492       494
       489       492       495       490       489       491       490       489       492
       491       489       492       492       495       496       492       495       497
       492       495       498       493       492       494       493       492       495
       494       492       495       495       498       499       495       498       500
       495       498       501       496       495       497       496       495       498
       497       495       498       498       501       502       498       501       503
       498       501       504       499       498       500       499       498       501
       500       498       501       501       504       505       501       504       506
       501       504       507       502       501       503       502       501       504
       503       501       504       504       507       508       504       507       509
       504       507       510       505       504       506       505       504       507
       506       504       507       507       510       511       507       510       512
       507       510       513       508       507       509       508       507       510
       509       507       510       510       513       514       510       513       515
       510       513       516       511       510       512       511       510       513
       512       510       513       513       516       517       513       516       518
       513       516       519       514       513       515       514       513       516
       515       513       516       516       519       520       516       519       521
       516       519       522       517       516       518       517       516       519
       518       516       519       520       519       521       520       519       522
       521       519       522       523       524       525       523       524       526
       523       524       539       523       527       528       523       527       529
       523       527       530       523       531       532       523       531       533
       523       531       534       523       535       536       523       535       537
       523       535       538       524       523       527       524       523       531
       524       523       535       524       539       540       524       539       541
       524       539       545       525       524       526       525       524       539
       526       524       539       527       523       531       527       523       535
       528       527       529       528       527       530       529       527       530
       531       523       535       532       531       533       532       531       534
       533       531       534       536       535       537       536       535       538
       537       535       538       539       545       542       540       539       541
       540       539       545       541       539       545       542       546       547
       543       542       544       543       542       545       543       542       546
       544       542       545       544       542       546       545       542       546
       546       547       548       546       547       549       546       547       550
       547       550       551       547       550       552       547       550       558
       548       547       549       548       547       550       549       547       550
       550       552       553       550       558       559       550       558       560
       550       558       561       551       550       552       551       550       558
       552       550       558       552       553       554       552       553       555
       553       555       556       553       555       557       553       555       567
       554       553       555       555       567       568       555       567       569
       555       567       570       556       555       557       556       555       567
       557       555       567       558       561       562       559       558       560
       559       558       561       560       558       561       561       562       563
       561       562       564       562       564       565       562       564       566
       562       564       614       563       562       564       564       614       615
       564       614       616       564       614       617       565       564       566
       565       564       614       566       564       614       567       570       571
       567       570       572       567       570       573       568       567       569
       568       567       570       569       567       570       570       573       574
       570       573       575       570       573       576       571       570       572
       571       570       573       572       570       573       573       576       577
       573       576       578       573       576       579       574       573       575
       574       573       576       575       573       576       576       579       580
       576       579       581       576       579       582       577       576       578
       577       576       579       578       576       579       579       582       583
       579       582       584       579       582       585       580       579       581
       580       579       582       581       579       582       582       585       586
       582       585       587       583       582       584       583       582       585
       584       582       585       585       587       588       585       587       589
       586       585       587       587       589       590       587       589       591
       587       589       592       588       587       589       589       592       593
       589       592       594       589       592       595       590       589       591
       590       589       592       591       589       592       592       595       596
       592       595       597       592       595       598       593       592       594
       593       592       595       594       592       595       595       598       599
       595       598       600       595       598       601       596       595       597
       596       595       598       597       595       598       598       601       602
       598       601       603       598       601       604       599       598       600
       599       598       601       600       598       601       601       604       605
       601       604       606       601       604       607       602       601       603
       602       601       604       603       601       604       604       607       608
       604       607       609       604       607       610       605       604       606
       605       604       607       606       604       607       607       610       611
       607       610       612       607       610       613       608       607       609
       608       607       610       609       607       610       611       610       612
       611       610       613       612       610       613       614       617       618
       614       617       619       614       617       620       615       614       616
       615       614       617       616       614       617       617       620       621
       617       620       622       617       620       623       618       617       619
       618       617       620       619       617       620       620       623       624
       620       623       625       620       623       626       621       620       622
       621       620       623       622       620       623       623       626       627
       623       626       628       623       626       629       624       623       625
       624       623       626       625       623       626       626       629       630
       626       629       631       626       629       632       627       626       628
       627       626       629       628       626       629       629       632       633
       629       632       634       629       632       635       630       629       631
       630       629       632       631       629       632       632       635       636
       632       635       637       632       635       638       633       632       634
       633       632       635       634       632       635       635       638       639
       635       638       640       635       638       641       636       635       637
       636       635       638       637       635       638       638       641       642
       638       641       643       638       641       644       639       638       640
       639       638       641       640       638       641       641       644       645
       641       644       646       641       644       647       642       641       643
       642       641       644       643       641       644       644       647       648
       644       647       649       644       647       650       645       644       646
       645       644       647       646       644       647       647       650       651
       647       650       652       647       650       653       648       647       649
       648       647       650       649       647       650       650       653       654
       650       653       655       650       653       656       651       650       652
       651       650       653       652       650       653       654       653       655
       654       653       656       655       653       656       657       658       659
       657       658       660       657       658       673       657       661       662
       657       661       663       657       661       664       657       665       666
       657       665       667       657       665       668       657       669       670
       657       669       671       657       669       672       658       657       661
       658       657       665       658       657       669       658       673       674
       658       673       675       658       673       679       659       658       660
       659       658       673       660       658       673       661       657       665
       661       657       669       662       661       663       662       661       664
       663       661       664       665       657       669       666       665       667
       666       665       668       667       665       668       670       669       671
       670       669       672       671       669       672       673       679       676
       674       673       675       674       673       679       675       673       679
       676       680       681       677       676       678       677       676       679
       677       676       680       678       676       679       678       676       680
       679       676       680       680       681       682       680       681       683
       680       681       684       681       684       685       681       684       686
       681       684       692       682       681       683       682       681       684
       683       681       684       684       686       687       684       692       693
       684       692       694       684       692       695       685       684       686
       685       684       692       686       684       692       686       687       688
       686       687       689       687       689       690       687       689       691
       687       689       701       688       687       689       689       701       702
       689       701       703       689       701       704       690       689       691
       690       689       701       691       689       701       692       695       696
       693       692       694       693       692       695       694       692       695
       695       696       697       695       696       698       696       698       699
       696       698       700       696       698       748       697       696       698
       698       748       749       698       748       750       698       748       751
       699       698       700       699       698       748       700       698       748
       701       704       705       701       704       706       701       704       707
       702       701       703       702       701       704       703       701       704
       704       707       708       704       707       709       704       707       710
       705       704       706       705       704       707       706       704       707
       707       710       711       707       710       712       707       710       713
       708       707       709       708       707       710       709       707       710
       710       713       714       710       713       715       710       713       716
       711       710       712       711       710       713       712       710       713
       713       716       717       713       716       718       713       716       719
       714       713       715       714       713       716       715       713       716
       716       719       720       716       719       721       717       716       718
       717       716       719       718       716       719       719       721       722
       719       721       723       720       719       721       721       723       724
       721       723       725       721       723       726       722       721       723
       723       726       727       723       726       728       723       726       729
       724       723       725       724       723       726       725       723       726
       726       729       730       726       729       731       726       729       732
       727       726       728       727       726       729       728       726       729
       729       732       733       729       732       734       729       732       735
       730       729       731       730       729       732       731       729       732
       732       735       736       732       735       737       732       735       738
       733       732       734       733       732       735       734       732       735
       735       738       739       735       738       740       735       738       741
       736       735       737       736       735       738       737       735       738
       738       741       742       738       741       743       738       741       744
       739       738       740       739       738       741       740       738       741
       741       744       745       741       744       746       741       744       747
       742       741       743       742       741       744       743       741       744
       745       744       746       745       744       747       746       744       747
       748       751       752       748       751       753       748       751       754
       749       748       750       749       748       751       750       748       751
       751       754       755       751       754       756       751       754       757
       752       751       753       752       751       754       753       751       754
       754       757       758       754       757       759       754       757       760
       755       754       756       755       754       757       756       754       757
       757       760       761       757       760       762       757       760       763
       758       757       759       758       757       760       759       757       760
       760       763       764       760       763       765       760       763       766
       761       760       762       761       760       763       762       760       763
       763       766       767       763       766       768       763       766       769
       764       763       765       764       763       766       765       763       766
       766       769       770       766       769       771       766       769       772
       767       766       768       767       766       769       768       766       769
       769       772       773       769       772       774       769       772       775
       770       769       771       770       769       772       771       769       772
       772       775       776       772       775       777       772       775       778
       773       772       774       773       772       775       774       772       775
       775       778       779       775       778       780       775       778       781
       776       775       777       776       775       778       777       775       778
       778       781       782       778       781       783       778       781       784
       779       778       780       779       778       781       780       778       781
       781       784       785       781       784       786       781       784       787
       782       781       783       782       781       784       783       781       784
       784       787       788       784       787       789       784       787       790
       785       784       786       785       784       787       786       784       787
       788       787       789       788       787       790       789       787       790
       791       795       796       791       795       797       791       795       800
       792       791       793       792       791       794       792       791       795
       793       791       794       793       791       795       794       791       795
       795       797       798       795       797       799       795       800       801
       795       800       802       795       800       806       796       795       797
       796       795       800       797       795       800       798       797       799
       800       806       803       801       800       802       801       800       806
       802       800       806       803       807       808       804       803       805
       804       803       806       804       803       807       805       803       806
       805       803       807       806       803       807       807       808       809
       807       808       810       807       808       811       808       811       812
       808       811       813       808       811       819       809       808       810
       809       808       811       810       808       811       811       813       814
       811       819       820       811       819       821       811       819       822
       812       811       813       812       811       819       813       811       819
       813       814       815       813       814       816       814       816       817
       814       816       818       814       816       828       815       814       816
       816       828       829       816       828       830       816       828       831
       817       816       818       817       816       828       818       816       828
       819       822       823       820       819       821       820       819       822
       821       819       822       822       823       824       822       823       825
       823       825       826       823       825       827       823       825       875
       824       823       825       825       875       876       825       875       877
       825       875       878       826       825       827       826       825       875
       827       825       875       828       831       832       828       831       833
       828       831       834       829       828       830       829       828       831
       830       828       831       831       834       835       831       834       836
       831       834       837       832       831       833       832       831       834
       833       831       834       834       837       838       834       837       839
       834       837       840       835       834       836       835       834       837
       836       834       837       837       840       841       837       840       842
       837       840       843       838       837       839       838       837       840
       839       837       840       840       843       844       840       843       845
       840       843       846       841       840       842       841       840       843
       842       840       843       843       846       847       843       846       848
       844       843       845       844       843       846       845       843       846
       846       848       849       846       848       850       847       846       848
       848       850       851       848       850       852       848       850       853
       849       848       850       850       853       854       850       853       855
       850       853       856       851       850       852       851       850       853
       852       850       853       853       856       857       853       856       858
       853       856       859       854       853       855       854       853       856
       855       853       856       856       859       860       856       859       861
       856       859       862       857       856       858       857       856       859
       858       856       859       859       862       863       859       862       864
       859       862       865       860       859       861       860       859       862
       861       859       862       862       865       866       862       865       867
       862       865       868       863       862       864       863       862       865
       864       862       865       865       868       869       865       868       870
       865       868       871       866       865       867       866       865       868
       867       865       868       868       871       872       868       871       873
       868       871       874       869       868       870       869       868       871
       870       868       871       872       871       873       872       871       874
       873       871       874       875       878       879       875       878       880
       875       878       881       876       875       877       876       875       878
       877       875       878       878       881       882       878       881       883
       878       881       884       879       878       880       879       878       881
       880       878       881       881       884       885       881       884       886
       881       884       887       882       881       883       882       881       884
       883       881       884       884       887       888       884       887       889
       884       887       890       885       884       886       885       884       887
       886       884       887       887       890       891       887       890       892
       887       890       893       888       887       889       888       887       890
       889       887       890       890       893       894       890       893       895
       890       893       896       891       890       892       891       890       893
       892       890       893       893       896       897       893       896       898
       893       896       899       894       893       895       894       893       896
       895       893       896       896       899       900       896       899       901
       896       899       902       897       896       898       897       896       899
       898       896       899       899       902       903       899       902       904
       899       902       905       900       899       901       900       899       902
       901       899       902       902       905       906       902       905       907
       902       905       908       903       902       904       903       902       905
       904       902       905       905       908       909       905       908       910
       905       908       911       906       905       907       906       905       908
       907       905       908       908       911       912       908       911       913
       908       911       914       909       908       910       909       908       911
       910       908       911       911       914       915       911       914       916
       911       914       917       912       911       913       912       911       914
       913       911       914       915       914       916       915       914       917
       916       914       917       918       919       920       918       919       921
       918       919       934       918       922       923       918       922       924
       918       922       925       918       926       927       918       926       928
       918       926       929       918       930       931       918       930       932
       918       930       933       919       918       922       919       918       926
       919       918       930       919       934       935       919       934       936
       919       934       940       920       919       921       920       919       934
       921       919       934       922       918       926       922       918       930
       923       922       924       923       922       925       924       922       925
       926       918       930       927       926       928       927       926       929
       928       926       929       931       930       932       931       930       933
       932       930       933       934       940       937       935       934       936
       935       934       940       936       934       940       937       941       942
       938       937       939       938       937       940       938       937       941
       939       937       940       939       937       941       940       937       941
       941       942       943       941       942       944       941       942       945
       942       945       946       942       945       947       942       945       953
       943       942       944       943       942       945       944       942       945
       945       947       948       945       953       954       945       953       955
       945       953       956       946       945       947       946       945       953
       947       945       953       947       948       949       947       948       950
       948       950       951       948       950       952       948       950       962
       949       948       950       950       962       963       950       962       964
       950       962       965       951       950       952       951       950       962
       952       950       962       953       956       957       954       953       955
       954       953       956       955       953       956       956       957       958
       956       957       959       957       959       960       957       959       961
       957       959      1009       958       957       959       959      1009      1010
       959      1009      1011       959      1009      1012       960       959       961
       960       959      1009       961       959      1009       962       965       966
       962       965       967       962       965       968       963       962       964
       963       962       965       964       962       965       965       968       969
       965       968       970       965       968       971       966       965       967
       966       965       968       967       965       968       968       971       972
       968       971       973       968       971       974       969       968       970
       969       968       971       970       968       971       971       974       975
       971       974       976       971       974       977       972       971       973
       972       971       974       973       971       974       974       977       978
       974       977       979       974       977       980       975       974       976
       975       974       977       976       974       977       977       980       981
       977       980       982       978       977       979       978       977       980
       979       977       980       980       982       983       980       982       984
       981       980       982       982       984       985       982       984       986
       982       984       987       983       982       984       984       987       988
       984       987       989       984       987       990       985       984       986
       985       984       987       986       984       987       987       990       991
       987       990       992       987       990       993       988       987       989
       988       987       990       989       987       990       990       993       994
       990       993       995       990       993       996       991       990       992
       991       990       993       992       990       993       993       996       997
       993       996       998       993       996       999       994       993       995
       994       993       996       995       993       996       996       999      1000
       996       999      1001       996       999      1002       997       996       998
       997       996       999       998       996       999       999      1002      1003
       999      1002      1004       999      1002      1005      1000       999      1001
      1000       999      1002      1001       999      1002      1002      1005      1006
      1002      1005      1007      1002      1005      1008      1003      1002      1004
      1003      1002      1005      1004      1002      1005      1006      1005      1007
      1006      1005      1008      1007      1005      1008      1009      1012      1013
      1009      1012      1014      1009      1012      1015      1010      1009      1011
      1010      1009      1012      1011      1009      1012      1012      1015      1016
      1012      1015      1017      1012      1015      1018      1013      1012      1014
      1013      1012      1015      1014      1012      1015      1015      1018      1019
      1015      1018      1020      1015      1018      1021      1016      1015      1017
      1016      1015      1018      1017      1015      1018      1018      1021      1022
      1018      1021      1023      1018      1021      1024      1019      1018      1020
      1019      1018      1021      1020      1018      1021      1021      1024      1025
      1021      1024      1026      1021      1024      1027      1022      1021      1023
      1022      1021      1024      1023      1021      1024      1024      1027      1028
      1024      1027      1029      1024      1027      1030      1025      1024      1026
      1025      1024      1027      1026      1024      1027      1027      1030      1031
      1027      1030      1032      1027      1030      1033      1028      1027      1029
      1028      1027      1030      1029      1027      1030      1030      1033      1034
      1030      1033      1035      1030      1033      1036      1031      1030      1032
      1031      1030      1033      1032      1030      1033      1033      1036      1037
      1033      1036      1038      1033      1036      1039      1034      1033      1035
      1034      1033      1036      1035      1033      1036      1036      1039      1040
      1036      1039      1041      1036      1039      1042      1037      1036      1038
      1037      1036      1039      1038      1036      1039      1039      1042      1043
      1039      1042      1044      1039      1042      1045      1040      1039      1041
      1040      1039      1042      1041      1039      1042      1042      1045      1046
      1042      1045      1047      1042      1045      1048      1043      1042      1044
      1043      1042      1045      1044      1042      1045      1045      1048      1049
      1045      1048      1050      1045      1048      1051      1046      1045      1047
      1046      1045      1048      1047      1045      1048      1049      1048      1050
      1049      1048      1051      1050      1048      1051      1052      1053      1054
      1052      1053      1055      1052      1053      1068      1052      1056      1057
      1052      1056      1058      1052      1056      1059      1052      1060      1061
      1052      1060      1062      1052      1060      1063      1052      1064      1065
      1052      1064      1066      1052      1064      1067      1053      1052      1056
      1053      1052      1060      1053      1052      1064      1053      1068      1069
      1053      1068      1070      1053      1068      1074      1054      1053      1055
      1054      1053      1068      1055      1053      1068      1056      1052      1060
      1056      1052      1064      1057      1056      1058      1057      1056      1059
      1058      1056      1059      1060      1052      1064      1061      1060      1062
      1061      1060      1063      1062      1060      1063      1065      1064      1066
      1065      1064      1067      1066      1064      1067      1068      1074      1071
      1069      1068      1070      1069      1068      1074      1070      1068      1074
      1071      1075      1076      1072      1071      1073      1072      1071      1074
      1072      1071      1075      1073      1071      1074      1073      1071      1075
      1074      1071      1075      1075      1076      1077      1075      1076      1078
      1075      1076      1079      1076      1079      1080      1076      1079      1081
      1076      1079      1087      1077      1076      1078      1077      1076      1079
      1078      1076      1079      1079      1081      1082      1079      1087      1088
      1079      1087      1089      1079      1087      1090      1080      1079      1081
      1080      1079      1087      1081      1079      1087      1081      1082      1083
      1081      1082      1084      1082      1084      1085      1082      1084      1086
      1082      1084      1096      1083      1082      1084      1084      1096      1097
      1084      1096      1098      1084      1096      1099      1085      1084      1086
      1085      1084      1096      1086      1084      1096      1087      1090      1091
      1088      1087      1089      1088      1087      1090      1089      1087      1090
      1090      1091      1092      1090      1091      1093      1091      1093      1094
      1091      1093      1095      1091      1093      1143      1092      1091      1093
      1093      1143      1144      1093      1143      1145      1093      1143      1146
      1094      1093      1095      1094      1093      1143      1095      1093      1143
      1096      1099      1100      1096      1099      1101      1096      1099      1102
      1097      1096      1098      1097      1096      1099      1098      1096      1099
      1099      1102      1103      1099      1102      1104      1099      1102      1105
      1100      1099      1101      1100      1099      1102      1101      1099      1102
      1102      1105      1106      1102      1105      1107      1102      1105      1108
      1103      1102      1104      1103      1102      1105      1104      1102      1105
      1105      1108      1109      1105      1108      1110      1105      1108      1111
      1106      1105      1107      1106      1105      1108      1107      1105      1108
      1108      1111      1112      1108      1111      1113      1108      1111      1114
      1109      1108      1110      1109      1108      1111      1110      1108      1111
      1111      1114      1115      1111      1114      1116      1112      1111      1113
      1112      1111      1114      1113      1111      1114      1114      1116      1117
      1114      1116      1118      1115      1114      1116      1116      1118      1119
      1116      1118      1120      1116      1118      1121      1117      1116      1118
      1118      1121      1122      1118      1121      1123      1118      1121      1124
      1119      1118      1120      1119      1118      1121      1120      1118      1121
      1121      1124      1125      1121      1124      1126      1121      1124      1127
      1122      1121      1123      1122      1121      1124      1123      1121      1124
      1124      1127      1128      1124      1127      1129      1124      1127      1130
      1125      1124      1126      1125      1124      1127      1126      1124      1127
      1127      1130      1131      1127      1130      1132      1127      1130      1133
      1128      1127      1129      1128      1127      1130      1129      1127      1130
      1130      1133      1134      1130      1133      1135      1130      1133      1136
      1131      1130      1132      1131      1130      1133      1132      1130      1133
      1133      1136      1137      1133      1136      1138      1133      1136      1139
      1134      1133      1135      1134      1133      1136      1135      1133      1136
      1136      1139      1140      1136      1139      1141      1136      1139      1142
      1137      1136      1138      1137      1136      1139      1138      1136      1139
      1140      1139      1141      1140      1139      1142      1141      1139      1142
      1143      1146      1147      1143      1146      1148      1143      1146      1149
      1144      1143      1145      1144      1143      1146      1145      1143      1146
      1146      1149      1150      1146      1149      1151      1146      1149      1152
      1147      1146      1148      1147      1146      1149      1148      1146      1149
      1149      1152      1153      1149      1152      1154      1149      1152      1155
      1150      1149      1151      1150      1149      1152      1151      1149      1152
      1152      1155      1156      1152      1155      1157      1152      1155      1158
      1153      1152      1154      1153      1152      1155      1154      1152      1155
      1155      1158      1159      1155      1158      1160      1155      1158      1161
      1156      1155      1157      1156      1155      1158      1157      1155      1158
      1158      1161      1162      1158      1161      1163      1158      1161      1164
      1159      1158      1160      1159      1158      1161      1160      1158      1161
      1161      1164      1165      1161      1164      1166      1161      1164      1167
      1162      1161      1163      1162      1161      1164      1163      1161      1164
      1164      1167      1168      1164      1167      1169      1164      1167      1170
      1165      1164      1166      1165      1164      1167      1166      1164      1167
      1167      1170      1171      1167      1170      1172      1167      1170      1173
      1168      1167      1169      1168      1167      1170      1169      1167      1170
      1170      1173      1174      1170      1173      1175      1170      1173      1176
      1171      1170      1172      1171      1170      1173      1172      1170      1173
      1173      1176      1177      1173      1176      1178      1173      1176      1179
      1174      1173      1175      1174      1173      1176      1175      1173      1176
      1176      1179      1180      1176      1179      1181      1176      1179      1182
      1177      1176      1178      1177      1176      1179      1178      1176      1179
      1179      1182      1183      1179      1182      1184      1179      1182      1185
      1180      1179      1181      1180      1179      1182      1181      1179      1182
      1183      1182      1184      1183      1182      1185      1184      1182      1185
      1186      1187      1188      1186      1187      1189      1186      1187      1202
      1186      1190      1191      1186      1190      1192      1186      1190      1193
      1186      1194      1195      1186      1194      1196      1186      1194      1197
      1186      1198      1199      1186      1198      1200      1186      1198      1201
      1187      1186      1190      1187      1186      1194      1187      1186      1198
      1187      1202      1203      1187      1202      1204      1187      1202      1208
      1188      1187      1189      1188      1187      1202      1189      1187      1202
      1190      1186      1194      1190      1186      1198      1191      1190      1192
      1191      1190      1193      1192      1190      1193      1194      1186      1198
      1195      1194      1196      1195      1194      1197      1196      1194      1197
      1199      1198      1200      1199      1198      1201      1200      1198      1201
      1202      1208      1205      1203      1202      1204      1203      1202      1208
      1204      1202      1208      1205      1209      1210      1206      1205      1207
      1206      1205      1208      1206      1205      1209      1207      1205      1208
      1207      1205      1209      1208      1205      1209      1209      1210      1211
      1209      1210      1212      1209      1210      1213      1210      1213      1214
      1210      1213      1215      1210      1213      1221      1211      1210      1212
      1211      1210      1213      1212      1210      1213      1213      1215      1216
      1213      1221      1222      1213      1221      1223      1213      1221      1224
      1214      1213      1215      1214      1213      1221      1215      1213      1221
      1215      1216      1217      1215      1216      1218      1216      1218      1219
      1216      1218      1220      1216      1218      1230      1217      1216      1218
      1218      1230      1231      1218      1230      1232      1218      1230      1233
      1219      1218      1220      1219      1218      1230      1220      1218      1230
      1221      1224      1225      1222      1221      1223      1222      1221      1224
      1223      1221      1224      1224      1225      1226      1224      1225      1227
      1225      1227      1228      1225      1227      1229      1225      1227      1277
      1226      1225      1227      1227      1277      1278      1227      1277      1279
      1227      1277      1280      1228      1227      1229      1228      1227      1277
      1229      1227      1277      1230      1233      1234      1230      1233      1235
      1230      1233      1236      1231      1230      1232      1231      1230      1233
      1232      1230      1233      1233      1236      1237      1233      1236      1238
      1233      1236      1239      1234      1233      1235      1234      1233      1236
      1235      1233      1236      1236      1239      1240      1236      1239      1241
      1236      1239      1242      1237      1236      1238      1237      1236      1239
      1238      1236      1239      1239      1242      1243      1239      1242      1244
      1239      1242      1245      1240      1239      1241      1240      1239      1242
      1241      1239      1242      1242      1245      1246      1242      1245      1247
      1242      1245      1248      1243      1242      1244      1243      1242      1245
      1244      1242      1245      1245      1248      1249      1245      1248      1250
      1246      1245      1247      1246      1245      1248      1247      1245      1248
      1248      1250      1251      1248      1250      1252      1249      1248      1250
      1250      1252      1253      1250      1252      1254      1250      1252      1255
      1251      1250      1252      1252      1255      1256      1252      1255      1257
      1252      1255      1258      1253      1252      1254      1253      1252      1255
      1254      1252      1255      1255      1258      1259      1255      1258      1260
      1255      1258      1261      1256      1255      1257      1256      1255      1258
      1257      1255      1258      1258      1261      1262      1258      1261      1263
      1258      1261      1264      1259      1258      1260      1259      1258      1261
      1260      1258      1261      1261      1264      1265      1261      1264      1266
      1261      1264      1267      1262      1261      1263      1262      1261      1264
      1263      1261      1264      1264      1267      1268      1264      1267      1269
      1264      1267      1270      1265      1264      1266      1265      1264      1267
      1266      1264      1267      1267      1270      1271      1267      1270      1272
      1267      1270      1273      1268      1267      1269      1268      1267      1270
      1269      1267      1270      1270      1273      1274      1270      1273      1275
      1270      1273      1276      1271      1270      1272      1271      1270      1273
      1272      1270      1273      1274      1273      1275      1274      1273      1276
      1275      1273      1276      1277      1280      1281      1277      1280      1282
      1277      1280      1283      1278      1277      1279      1278      1277      1280
      1279      1277      1280      1280      1283      1284      1280      1283      1285
      1280      1283      1286      1281      1280      1282      1281      1280      1283
      1282      1280      1283      1283      1286      1287      1283      1286      1288
      1283      1286      1289      1284      1283      1285      1284      1283      1286
      1285      1283      1286      1286      1289      1290      1286      1289      1291
      1286      1289      1292      1287      1286      1288      1287      1286      1289
      1288      1286      1289      1289      1292      1293      1289      1292      1294
      1289      1292      1295      1290      1289      1291      1290      1289      1292
      1291      1289      1292      1292      1295      1296      1292      1295      1297
      1292      1295      1298      1293      1292      1294      1293      1292      1295
      1294      1292      1295      1295      1298      1299      1295      1298      1300
      1295      1298      1301      1296      1295      1297      1296      1295      1298
      1297      1295      1298      1298      1301      1302      1298      1301      1303
      1298      1301      1304      1299      1298      1300      1299      1298      1301
      1300      1298      1301      1301      1304      1305      1301      1304      1306
      1301      1304      1307      1302      1301      1303      1302      1301      1304
      1303      1301      1304      1304      1307      1308      1304      1307      1309
      1304      1307      1310      1305      1304      1306      1305      1304      1307
      1306      1304      1307      1307      1310      1311      1307      1310      1312
      1307      1310      1313      1308      1307      1309      1308      1307      1310
      1309      1307      1310      1310      1313      1314      1310      1313      1315
      1310      1313      1316      1311      1310      1312      1311      1310      1313
      1312      1310      1313      1313      1316      1317      1313      1316      1318
      1313      1316      1319      1314      1313      1315      1314      1313      1316
      1315      1313      1316      1317      1316      1318      1317      1316      1319
      1318      1316      1319      1320      1321      1322      1320      1321      1323
      1320      1321      1336      1320      1324      1325      1320      1324      1326
      1320      1324      1327      1320      1328      1329      1320      1328      1330
      1320      1328      1331      1320      1332      1333      1320      1332      1334
      1320      1332      1335      1321      1320      1324      1321      1320      1328
      1321      1320      1332      1321      1336      1337      1321      1336      1338
      1321      1336      1342      1322      1321      1323      1322      1321      1336
      1323      1321      1336      1324      1320      1328      1324      1320      1332
      1325      1324      1326      1325      1324      1327      1326      1324      1327
      1328      1320      1332      1329      1328      1330      1329      1328      1331
      1330      1328      1331      1333      1332      1334      1333      1332      1335
      1334      1332      1335      1336      1342      1339      1337      1336      1338
      1337      1336      1342      1338      1336      1342      1339      1343      1344
      1340      1339      1341      1340      1339      1342      1340      1339      1343
      1341      1339      1342      1341      1339      1343      1342      1339      1343
      1343      1344      1345      1343      1344      1346      1343      1344      1347
      1344      1347      1348      1344      1347      1349      1344      1347      1355
      1345      1344      1346      1345      1344      1347      1346      1344      1347
      1347      1349      1350      1347      1355      1356      1347      1355      1357
      1347      1355      1358      1348      1347      1349      1348      1347      1355
      1349      1347      1355      1349      1350      1351      1349      1350      1352
      1350      1352      1353      1350      1352      1354      1350      1352      1364
      1351      1350      1352      1352      1364      1365      1352      1364      1366
      1352      1364      1367      1353      1352      1354      1353      1352      1364
      1354      1352      1364      1355      1358      1359      1356      1355      1357
      1356      1355      1358      1357      1355      1358      1358      1359      1360
      1358      1359      1361      1359      1361      1362      1359      1361      1363
      1359      1361      1411      1360      1359      1361      1361      1411      1412
      1361      1411      1413      1361      1411      1414      1362      1361      1363
      1362      1361      1411      1363      1361      1411      1364      1367      1368
      1364      1367      1369      1364      1367      1370      1365      1364      1366
      1365      1364      1367      1366      1364      1367      1367      1370      1371
      1367      1370      1372      1367      1370      1373      1368      1367      1369
      1368      1367      1370      1369      1367      1370      1370      1373      1374
      1370      1373      1375      1370      1373      1376      1371      1370      1372
      1371      1370      1373      1372      1370      1373      1373      1376      1377
      1373      1376      1378      1373      1376      1379      1374      1373      1375
      1374      1373      1376      1375      1373      1376      1376      1379      1380
      1376      1379      1381      1376      1379      1382      1377      1376      1378
      1377      1376      1379      1378      1376      1379      1379      1382      1383
      1379      1382      1384      1380      1379      1381      1380      1379      1382
      1381      1379      1382      1382      1384      1385      1382      1384      1386
      1383      1382      1384      1384      1386      1387      1384      1386      1388
      1384      1386      1389      1385      1384      1386      1386      1389      1390
      1386      1389      1391      1386      1389      1392      1387      1386      1388
      1387      1386      1389      1388      1386      1389      1389      1392      1393
      1389      1392      1394      1389      1392      1395      1390      1389      1391
      1390      1389      1392      1391      1389      1392      1392      1395      1396
      1392      1395      1397      1392      1395      1398      1393      1392      1394
      1393      1392      1395      1394      1392      1395      1395      1398      1399
      1395      1398      1400      1395      1398      1401      1396      1395      1397
      1396      1395      1398      1397      1395      1398      1398      1401      1402
      1398      1401      1403      1398      1401      1404      1399      1398      1400
      1399      1398      1401      1400      1398      1401      1401      1404      1405
      1401      1404      1406      1401      1404      1407      1402      1401      1403
      1402      1401      1404      1403      1401      1404      1404      1407      1408
      1404      1407      1409      1404      1407      1410      1405      1404      1406
      1405      1404      1407      1406      1404      1407      1408      1407      1409
      1408      1407      1410      1409      1407      1410      1411      1414      1415
      1411      1414      1416      1411      1414      1417      1412      1411      1413
      1412      1411      1414      1413      1411      1414      1414      1417      1418
      1414      1417      1419      1414      1417      1420      1415      1414      1416
      1415      1414      1417      1416      1414      1417      1417      1420      1421
      1417      1420      1422      1417      1420      1423      1418      1417      1419
      1418      1417      1420      1419      1417      1420      1420      1423      1424
      1420      1423      1425      1420      1423      1426      1421      1420      1422
      1421      1420      1423      1422      1420      1423      1423      1426      1427
      1423      1426      1428      1423      1426      1429      1424      1423      1425
      1424      1423      1426      1425      1423      1426      1426      1429      1430
      1426      1429      1431      1426      1429      1432      1427      1426      1428
      1427      1426      1429      1428      1426      1429      1429      1432      1433
      1429      1432      1434      1429      1432      1435      1430      1429      1431
      1430      1429      1432      1431      1429      1432      1432      1435      1436
      1432      1435      1437      1432      1435      1438      1433      1432      1434
      1433      1432      1435      1434      1432      1435      1435      1438      1439
      1435      1438      1440      1435      1438      1441      1436      1435      1437
      1436      1435      1438      1437      1435      1438      1438      1441      1442
      1438      1441      1443      1438      1441      1444      1439      1438      1440
      1439      1438      1441      1440      1438      1441      1441      1444      1445
      1441      1444      1446      1441      1444      1447      1442      1441      1443
      1442      1441      1444      1443      1441      1444      1444      1447      1448
      1444      1447      1449      1444      1447      1450      1445      1444      1446
      1445      1444      1447      1446      1444      1447      1447      1450      1451
      1447      1450      1452      1447      1450      1453      1448      1447      1449
      1448      1447      1450      1449      1447      1450      1451      1450      1452
      1451      1450      1453      1452      1450      1453      1454      1455      1456
      1454      1455      1457      1454      1455      1470      1454      1458      1459
      1454      1458      1460      1454      1458      1461      1454      1462      1463
      1454      1462      1464      1454      1462      1465      1454      1466      1467
      1454      1466      1468      1454      1466      1469      1455      1454      1458
      1455      1454      1462      1455      1454      1466      1455      1470      1471
      1455      1470      1472      1455      1470      1476      1456      1455      1457
      1456      1455      1470      1457      1455      1470      1458      1454      1462
      1458      1454      1466      1459      1458      1460      1459      1458      1461
      1460      1458      1461      1462      1454      1466      1463      1462      1464
      1463      1462      1465      1464      1462      1465      1467      1466      1468
      1467      1466      1469      1468      1466      1469      1470      1476      1473
      1471      1470      1472      1471      1470      1476      1472      1470      1476
      1473      1477      1478      1474      1473      1475      1474      1473      1476
      1474      1473      1477      1475      1473      1476      1475      1473      1477
      1476      1473      1477      1477      1478      1479      1477      1478      1480
      1477      1478      1481      1478      1481      1482      1478      1481      1483
      1478      1481      1489      1479      1478      1480      1479      1478      1481
      1480      1478      1481      1481      1483      1484      1481      1489      1490
      1481      1489      1491      1481      1489      1492      1482      1481      1483
      1482      1481      1489      1483      1481      1489      1483      1484      1485
      1483      1484      1486      1484      1486      1487      1484      1486      1488
      1484      1486      1498      1485      1484      1486      1486      1498      1499
      1486      1498      1500      1486      1498      1501      1487      1486      1488
      1487      1486      1498      1488      1486      1498      1489      1492      1493
      1490      1489      1491      1490      1489      1492      1491      1489      1492
      1492      1493      1494      1492      1493      1495      1493      1495      1496
      1493      1495      1497      1493      1495      1545      1494      1493      1495
      1495      1545      1546      1495      1545      1547      1495      1545      1548
      1496      1495      1497      1496      1495      1545      1497      1495      1545
      1498      1501      1502      1498      1501      1503      1498      1501      1504
      1499      1498      1500      1499      1498      1501      1500      1498      1501
      1501      1504      1505      1501      1504      1506      1501      1504      1507
      1502      1501      1503      1502      1501      1504      1503      1501      1504
      1504      1507      1508      1504      1507      1509      1504      1507      1510
      1505      1504      1506      1505      1504      1507      1506      1504      1507
      1507      1510      1511      1507      1510      1512      1507      1510      1513
      1508      1507      1509      1508      1507      1510      1509      1507      1510
      1510      1513      1514      1510      1513      1515      1510      1513      1516
      1511      1510      1512      1511      1510      1513      1512      1510      1513
      1513      1516      1517      1513      1516      1518      1514      1513      1515
      1514      1513      1516      1515      1513      1516      1516      1518      1519
      1516      1518      1520      1517      1516      1518      1518      1520      1521
      1518      1520      1522      1518      1520      1523      1519      1518      1520
      1520      1523      1524      1520      1523      1525      1520      1523      1526
      1521      1520      1522      1521      1520      1523      1522      1520      1523
      1523      1526      1527      1523      1526      1528      1523      1526      1529
      1524      1523      1525      1524      1523      1526      1525      1523      1526
      1526      1529      1530      1526      1529      1531      1526      1529      1532
      1527      1526      1528      1527      1526      1529      1528      1526      1529
      1529      1532      1533      1529      1532      1534      1529      1532      1535
      1530      1529      1531      1530      1529      1532      1531      1529      1532
      1532      1535      1536      1532      1535      1537      1532      1535      1538
      1533      1532      1534      1533      1532      1535      1534      1532      1535
      1535      1538      1539      1535      1538      1540      1535      1538      1541
      1536      1535      1537      1536      1535      1538      1537      1535      1538
      1538      1541      1542      1538      1541      1543      1538      1541      1544
      1539      1538      1540      1539      1538      1541      1540      1538      1541
      1542      1541      1543      1542      1541      1544      1543      1541      1544
      1545      1548      1549      1545      1548      1550      1545      1548      1551
      1546      1545      1547      1546      1545      1548      1547      1545      1548
      1548      1551      1552      1548      1551      1553      1548      1551      1554
      1549      1548      1550      1549      1548      1551      1550      1548      1551
      1551      1554      1555      1551      1554      1556      1551      1554      1557
      1552      1551      1553      1552      1551      1554      1553      1551      1554
      1554      1557      1558      1554      1557      1559      1554      1557      1560
      1555      1554      1556      1555      1554      1557      1556      1554      1557
      1557      1560      1561      1557      1560      1562      1557      1560      1563
      1558      1557      1559      1558      1557      1560      1559      1557      1560
      1560      1563      1564      1560      1563      1565      1560      1563      1566
      1561      1560      1562      1561      1560      1563      1562      1560      1563
      1563      1566      1567      1563      1566      1568      1563      1566      1569
      1564      1563      1565      1564      1563      1566      1565      1563      1566
      1566      1569      1570      1566      1569      1571      1566      1569      1572
      1567      1566      1568      1567      1566      1569      1568      1566      1569
      1569      1572      1573      1569      1572      1574      1569      1572      1575
      1570      1569      1571      1570      1569      1572      1571      1569      1572
      1572      1575      1576      1572      1575      1577      1572      1575      1578
      1573      1572      1574      1573      1572      1575      1574      1572      1575
      1575      1578      1579      1575      1578      1580      1575      1578      1581
      1576      1575      1577      1576      1575      1578      1577      1575      1578
      1578      1581      1582      1578      1581      1583      1578      1581      1584
      1579      1578      1580      1579      1578      1581      1580      1578      1581
      1581      1584      1585      1581      1584      1586      1581      1584      1587
      1582      1581      1583      1582      1581      1584      1583      1581      1584
      1585      1584      1586      1585      1584      1587      1586      1584      1587
      1588      1592      1593      1588      1592      1594      1588      1592      1597
      1589      1588      1590      1589      1588      1591      1589      1588      1592
      1590      1588      1591      1590      1588      1592      1591      1588      1592
      1592      1594      1595      1592      1594      1596      1592      1597      1598
      1592      1597      1599      1592      1597      1603      1593      1592      1594
      1593      1592      1597      1594      1592      1597      1595      1594      1596
      1597      1603      1600      1598      1597      1599      1598      1597      1603
      1599      1597      1603      1600      1604      1605      1601      1600      1602
      1601      1600      1603      1601      1600      1604      1602      1600      1603
      1602      1600      1604      1603      1600      1604      1604      1605      1606
      1604      1605      1607      1604      1605      1608      1605      1608      1609
      1605      1608      1610      1605      1608      1616      1606      1605      1607
      1606      1605      1608      1607      1605      1608      1608      1610      1611
      1608      1616      1617      1608      1616      1618      1608      1616      1619
      1609      1608      1610      1609      1608      1616      1610      1608      1616
      1610      1611      1612      1610      1611      1613      1611      1613      1614
      1611      1613      1615      1611      1613      1625      1612      1611      1613
      1613      1625      1626      1613      1625      1627      1613      1625      1628
      1614      1613      1615      1614      1613      1625      1615      1613      1625
      1616      1619      1620      1617      1616      1618      1617      1616      1619
      1618      1616      1619      1619      1620      1621      1619      1620      1622
      1620      1622      1623      1620      1622      1624      1620      1622      1672
      1621      1620      1622      1622      1672      1673      1622      1672      1674
      1622      1672      1675      1623      1622      1624      1623      1622      1672
      1624      1622      1672      1625      1628      1629      1625      1628      1630
      1625      1628      1631      1626      1625      1627      1626      1625      1628
      1627      1625      1628      1628      1631      1632      1628      1631      1633
      1628      1631      1634      1629      1628      1630      1629      1628      1631
      1630      1628      1631      1631      1634      1635      1631      1634      1636
      1631      1634      1637      1632      1631      1633      1632      1631      1634
      1633      1631      1634      1634      1637      1638      1634      1637      1639
      1634      1637      1640      1635      1634      1636      1635      1634      1637
      1636      1634      1637      1637      1640      1641      1637      1640      1642
      1637      1640      1643      1638      1637      1639      1638      1637      1640
      1639      1637      1640      1640      1643      1644      1640      1643      1645
      1641      1640      1642      1641      1640      1643      1642      1640      1643
      1643      1645      1646      1643      1645      1647      1644      1643      1645
      1645      1647      1648      1645      1647      1649      1645      1647      1650
      1646      1645      1647      1647      1650      1651      1647      1650      1652
      1647      1650      1653      1648      1647      1649      1648      1647      1650
      1649      1647      1650      1650      1653      1654      1650      1653      1655
      1650      1653      1656      1651      1650      1652      1651      1650      1653
      1652      1650      1653      1653      1656      1657      1653      1656      1658
      1653      1656      1659      1654      1653      1655      1654      1653      1656
      1655      1653      1656      1656      1659      1660      1656      1659      1661
      1656      1659      1662      1657      1656      1658      1657      1656      1659
      1658      1656      1659      1659      1662      1663      1659      1662      1664
      1659      1662      1665      1660      1659      1661      1660      1659      1662
      1661      1659      1662      1662      1665      1666      1662      1665      1667
      1662      1665      1668      1663      1662      1664      1663      1662      1665
      1664      1662      1665      1665      1668      1669      1665      1668      1670
      1665      1668      1671      1666      1665      1667      1666      1665      1668
      1667      1665      1668      1669      1668      1670      1669      1668      1671
      1670      1668      1671      1672      1675      1676      1672      1675      1677
      1672      1675      1678      1673      1672      1674      1673      1672      1675
      1674      1672      1675      1675      1678      1679      1675      1678      1680
      1675      1678      1681      1676      1675      1677      1676      1675      1678
      1677      1675      1678      1678      1681      1682      1678      1681      1683
      1678      1681      1684      1679      1678      1680      1679      1678      1681
      1680      1678      1681      1681      1684      1685      1681      1684      1686
      1681      1684      1687      1682      1681      1683      1682      1681      1684
      1683      1681      1684      1684      1687      1688      1684      1687      1689
      1684      1687      1690      1685      1684      1686      1685      1684      1687
      1686      1684      1687      1687      1690      1691      1687      1690      1692
      1687      1690      1693      1688      1687      1689      1688      1687      1690
      1689      1687      1690      1690      1693      1694      1690      1693      1695
      1690      1693      1696      1691      1690      1692      1691      1690      1693
      1692      1690      1693      1693      1696      1697      1693      1696      1698
      1693      1696      1699      1694      1693      1695      1694      1693      1696
      1695      1693      1696      1696      1699      1700      1696      1699      1701
      1696      1699      1702      1697      1696      1698      1697      1696      1699
      1698      1696      1699      1699      1702      1703      1699      1702      1704
      1699      1702      1705      1700      1699      1701      1700      1699      1702
      1701      1699      1702      1702      1705      1706      1702      1705      1707
      1702      1705      1708      1703      1702      1704      1703      1702      1705
      1704      1702      1705      1705      1708      1709      1705      1708      1710
      1705      1708      1711      1706      1705      1707      1706      1705      1708
      1707      1705      1708      1708      1711      1712      1708      1711      1713
      1708      1711      1714      1709      1708      1710      1709      1708      1711
      1710      1708      1711      1712      1711      1713      1712      1711      1714
      1713      1711      1714      1715      1716      1717      1715      1716      1718
      1715      1716      1731      1715      1719      1720      1715      1719      1721
      1715      1719      1722      1715      1723      1724      1715      1723      1725
      1715      1723      1726      1715      1727      1728      1715      1727      1729
      1715      1727      1730      1716      1715      1719      1716      1715      1723
      1716      1715      1727      1716      1731      1732      1716      1731      1733
      1716      1731      1737      1717      1716      1718      1717      1716      1731
      1718      1716      1731      1719      1715      1723      1719      1715      1727
      1720      1719      1721      1720      1719      1722      1721      1719      1722
      1723      1715      1727      1724      1723      1725      1724      1723      1726
      1725      1723      1726      1728      1727      1729      1728      1727      1730
      1729      1727      1730      1731      1737      1734      1732      1731      1733
      1732      1731      1737      1733      1731      1737      1734      1738      1739
      1735      1734      1736      1735      1734      1737      1735      1734      1738
      1736      1734      1737      1736      1734      1738      1737      1734      1738
      1738      1739      1740      1738      1739      1741      1738      1739      1742
      1739      1742      1743      1739      1742      1744      1739      1742      1750
      1740      1739      1741      1740      1739      1742      1741      1739      1742
      1742      1744      1745      1742      1750      1751      1742      1750      1752
      1742      1750      1753      1743      1742      1744      1743      1742      1750
      1744      1742      1750      1744      1745      1746      1744      1745      1747
      1745      1747      1748      1745      1747      1749      1745      1747      1759
      1746      1745      1747      1747      1759      1760      1747      1759      1761
      1747      1759      1762      1748      1747      1749      1748      1747      1759
      1749      1747      1759      1750      1753      1754      1751      1750      1752
      1751      1750      1753      1752      1750      1753      1753      1754      1755
      1753      1754      1756      1754      1756      1757      1754      1756      1758
      1754      1756      1806      1755      1754      1756      1756      1806      1807
      1756      1806      1808      1756      1806      1809      1757      1756      1758
      1757      1756      1806      1758      1756      1806      1759      1762      1763
      1759      1762      1764      1759      1762      1765      1760      1759      1761
      1760      1759      1762      1761      1759      1762      1762      1765      1766
      1762      1765      1767      1762      1765      1768      1763      1762      1764
      1763      1762      1765      1764      1762      1765      1765      1768      1769
      1765      1768      1770      1765      1768      1771      1766      1765      1767
      1766      1765      1768      1767      1765      1768      1768      1771      1772
      1768      1771      1773      1768      1771      1774      1769      1768      1770
      1769      1768      1771      1770      1768      1771      1771      1774      1775
      1771      1774      1776      1771      1774      1777      1772      1771      1773
      1772      1771      1774      1773      1771      1774      1774      1777      1778
      1774      1777      1779      1775      1774      1776      1775      1774      1777
      1776      1774      1777      1777      1779      1780      1777      1779      1781
      1778      1777      1779      1779      1781      1782      1779      1781      1783
      1779      1781      1784      1780      1779      1781      1781      1784      1785
      1781      1784      1786      1781      1784      1787      1782      1781      1783
      1782      1781      1784      1783      1781      1784      1784      1787      1788
      1784      1787      1789      1784      1787      1790      1785      1784      1786
      1785      1784      1787      1786      1784      1787      1787      1790      1791
      1787      1790      1792      1787      1790      1793      1788      1787      1789
      1788      1787      1790      1789      1787      1790      1790      1793      1794
      1790      1793      1795      1790      1793      1796      1791      1790      1792
      1791      1790      1793      1792      1790      1793      1793      1796      1797
      1793      1796      1798      1793      1796      1799      1794      1793      1795
      1794      1793      1796      1795      1793      1796      1796      1799      1800
      1796      1799      1801      1796      1799      1802      1797      1796      1798
      1797      1796      1799      1798      1796      1799      1799      1802      1803
      1799      1802      1804      1799      1802      1805      1800      1799      1801
      1800      1799      1802      1801      1799      1802      1803      1802      1804
      1803      1802      1805      1804      1802      1805      1806      1809      1810
      1806      1809      1811      1806      1809      1812      1807      1806      1808
      1807      1806      1809      1808      1806      1809      1809      1812      1813
      1809      1812      1814      1809      1812      1815      1810      1809      1811
      1810      1809      1812      1811      1809      1812      1812      1815      1816
      1812      1815      1817      1812      1815      1818      1813      1812      1814
      1813      1812      1815      1814      1812      1815      1815      1818      1819
      1815      1818      1820      1815      1818      1821      1816      1815      1817
      1816      1815      1818      1817      1815      1818      1818      1821      1822
      1818      1821      1823      1818      1821      1824      1819      1818      1820
      1819      1818      1821      1820      1818      1821      1821      1824      1825
      1821      1824      1826      1821      1824      1827      1822      1821      1823
      1822      1821      1824      1823      1821      1824      1824      1827      1828
      1824      1827      1829      1824      1827      1830      1825      1824      1826
      1825      1824      1827      1826      1824      1827      1827      1830      1831
      1827      1830      1832      1827      1830      1833      1828      1827      1829
      1828      1827      1830      1829      1827      1830      1830      1833      1834
      1830      1833      1835      1830      1833      1836      1831      1830      1832
      1831      1830      1833      1832      1830      1833      1833      1836      1837
      1833      1836      1838      1833      1836      1839      1834      1833      1835
      1834      1833      1836      1835      1833      1836      1836      1839      1840
      1836      1839      1841      1836      1839      1842      1837      1836      1838
      1837      1836      1839      1838      1836      1839      1839      1842      1843
      1839      1842      1844      1839      1842      1845      1840      1839      1841
      1840      1839      1842      1841      1839      1842      1842      1845      1846
      1842      1845      1847      1842      1845      1848      1843      1842      1844
      1843      1842      1845      1844      1842      1845      1846      1845      1847
      1846      1845      1848      1847      1845      1848      1849      1850      1851
      1849      1850      1852      1849      1850      1865      1849      1853      1854
      1849      1853      1855      1849      1853      1856      1849      1857      1858
      1849      1857      1859      1849      1857      1860      1849      1861      1862
      1849      1861      1863      1849      1861      1864      1850      1849      1853
      1850      1849      1857      1850      1849      1861      1850      1865      1866
      1850      1865      1867      1850      1865      1871      1851      1850      1852
      1851      1850      1865      1852      1850      1865      1853      1849      1857
      1853      1849      1861      1854      1853      1855      1854      1853      1856
      1855      1853      1856      1857      1849      1861      1858      1857      1859
      1858      1857      1860      1859      1857      1860      1862      1861      1863
      1862      1861      1864      1863      1861      1864      1865      1871      1868
      1866      1865      1867      1866      1865      1871      1867      1865      1871
      1868      1872      1873      1869      1868      1870      1869      1868      1871
      1869      1868      1872      1870      1868      1871      1870      1868      1872
      1871      1868      1872      1872      1873      1874      1872      1873      1875
      1872      1873      1876      1873      1876      1877      1873      1876      1878
      1873      1876      1884      1874      1873      1875      1874      1873      1876
      1875      1873      1876      1876      1878      1879      1876      1884      1885
      1876      1884      1886      1876      1884      1887      1877      1876      1878
      1877      1876      1884      1878      1876      1884      1878      1879      1880
      1878      1879      1881      1879      1881      1882      1879      1881      1883
      1879      1881      1893      1880      1879      1881      1881      1893      1894
      1881      1893      1895      1881      1893      1896      1882      1881      1883
      1882      1881      1893      1883      1881      1893      1884      1887      1888
      1885      1884      1886      1885      1884      1887      1886      1884      1887
      1887      1888      1889      1887      1888      1890      1888      1890      1891
      1888      1890      1892      1888      1890      1940      1889      1888      1890
      1890      1940      1941      1890      1940      1942      1890      1940      1943
      1891      1890      1892      1891      1890      1940      1892      1890      1940
      1893      1896      1897      1893      1896      1898      1893      1896      1899
      1894      1893      1895      1894      1893      1896      1895      1893      1896
      1896      1899      1900      1896      1899      1901      1896      1899      1902
      1897      1896      1898      1897      1896      1899      1898      1896      1899
      1899      1902      1903      1899      1902      1904      1899      1902      1905
      1900      1899      1901      1900      1899      1902      1901      1899      1902
      1902      1905      1906      1902      1905      1907      1902      1905      1908
      1903      1902      1904      1903      1902      1905      1904      1902      1905
      1905      1908      1909      1905      1908      1910      1905      1908      1911
      1906      1905      1907      1906      1905      1908      1907      1905      1908
      1908      1911      1912      1908      1911      1913      1909      1908      1910
      1909      1908      1911      1910      1908      1911      1911      1913      1914
      1911      1913      1915      1912      1911      1913      1913      1915      1916
      1913      1915      1917      1913      1915      1918      1914      1913      1915
      1915      1918      1919      1915      1918      1920      1915      1918      1921
      1916      1915      1917      1916      1915      1918      1917      1915      1918
      1918      1921      1922      1918      1921      1923      1918      1921      1924
      1919      1918      1920      1919      1918      1921      1920      1918      1921
      1921      1924      1925      1921      1924      1926      1921      1924      1927
      1922      1921      1923      1922      1921      1924      1923      1921      1924
      1924      1927      1928      1924      1927      1929      1924      1927      1930
      1925      1924      1926      1925      1924      1927      1926      1924      1927
      1927      1930      1931      1927      1930      1932      1927      1930      1933
      1928      1927      1929      1928      1927      1930      1929      1927      1930
      1930      1933      1934      1930      1933      1935      1930      1933      1936
      1931      1930      1932      1931      1930      1933      1932      1930      1933
      1933      1936      1937      1933      1936      1938      1933      1936      1939
      1934      1933      1935      1934      1933      1936      1935      1933      1936
      1937      1936      1938      1937      1936      1939      1938      1936      1939
      1940      1943      1944      1940      1943      1945      1940      1943      1946
      1941      1940      1942      1941      1940      1943      1942      1940      1943
      1943      1946      1947      1943      1946      1948      1943      1946      1949
      1944      1943      1945      1944      1943      1946      1945      1943      1946
      1946      1949      1950      1946      1949      1951      1946      1949      1952
      1947      1946      1948      1947      1946      1949      1948      1946      1949
      1949      1952      1953      1949      1952      1954      1949      1952      1955
      1950      1949      1951      1950      1949      1952      1951      1949      1952
      1952      1955      1956      1952      1955      1957      1952      1955      1958
      1953      1952      1954      1953      1952      1955      1954      1952      1955
      1955      1958      1959      1955      1958      1960      1955      1958      1961
      1956      1955      1957      1956      1955      1958      1957      1955      1958
      1958      1961      1962      1958      1961      1963      1958      1961      1964
      1959      1958      1960      1959      1958      1961      1960      1958      1961
      1961      1964      1965      1961      1964      1966      1961      1964      1967
      1962      1961      1963      1962      1961      1964      1963      1961      1964
      1964      1967      1968      1964      1967      1969      1964      1967      1970
      1965      1964      1966      1965      1964      1967      1966      1964      1967
      1967      1970      1971      1967      1970      1972      1967      1970      1973
      1968      1967      1969      1968      1967      1970      1969      1967      1970
      1970      1973      1974      1970      1973      1975      1970      1973      1976
      1971      1970      1972      1971      1970      1973      1972      1970      1973
      1973      1976      1977      1973      1976      1978      1973      1976      1979
      1974      1973      1975      1974      1973      1976      1975      1973      1976
      1976      1979      1980      1976      1979      1981      1976      1979      1982
      1977      1976      1978      1977      1976      1979      1978      1976      1979
      1980      1979      1981      1980      1979      1982      1981      1979      1982
      1983      1984      1985      1983      1984      1986      1983      1984      1999
      1983      1987      1988      1983      1987      1989      1983      1987      1990
      1983      1991      1992      1983      1991      1993      1983      1991      1994
      1983      1995      1996      1983      1995      1997      1983      1995      1998
      1984      1983      1987      1984      1983      1991      1984      1983      1995
      1984      1999      2000      1984      1999      2001      1984      1999      2005
      1985      1984      1986      1985      1984      1999      1986      1984      1999
      1987      1983      1991      1987      1983      1995      1988      1987      1989
      1988      1987      1990      1989      1987      1990      1991      1983      1995
      1992      1991      1993      1992      1991      1994      1993      1991      1994
      1996      1995      1997      1996      1995      1998      1997      1995      1998
      1999      2005      2002      2000      1999      2001      2000      1999      2005
      2001      1999      2005      2002      2006      2007      2003      2002      2004
      2003      2002      2005      2003      2002      2006      2004      2002      2005
      2004      2002      2006      2005      2002      2006      2006      2007      2008
      2006      2007      2009      2006      2007      2010      2007      2010      2011
      2007      2010      2012      2007      2010      2018      2008      2007      2009
      2008      2007      2010      2009      2007      2010      2010      2012      2013
      2010      2018      2019      2010      2018      2020      2010      2018      2021
      2011      2010      2012      2011      2010      2018      2012      2010      2018
      2012      2013      2014      2012      2013      2015      2013      2015      2016
      2013      2015      2017      2013      2015      2027      2014      2013      2015
      2015      2027      2028      2015      2027      2029      2015      2027      2030
      2016      2015      2017      2016      2015      2027      2017      2015      2027
      2018      2021      2022      2019      2018      2020      2019      2018      2021
      2020      2018      2021      2021      2022      2023      2021      2022      2024
      2022      2024      2025      2022      2024      2026      2022      2024      2074
      2023      2022      2024      2024      2074      2075      2024      2074      2076
      2024      2074      2077      2025      2024      2026      2025      2024      2074
      2026      2024      2074      2027      2030      2031      2027      2030      2032
      2027      2030      2033      2028      2027      2029      2028      2027      2030
      2029      2027      2030      2030      2033      2034      2030      2033      2035
      2030      2033      2036      2031      2030      2032      2031      2030      2033
      2032      2030      2033      2033      2036      2037      2033      2036      2038
      2033      2036      2039      2034      2033      2035      2034      2033      2036
      2035      2033      2036      2036      2039      2040      2036      2039      2041
      2036      2039      2042      2037      2036      2038      2037      2036      2039
      2038      2036      2039      2039      2042      2043      2039      2042      2044
      2039      2042      2045      2040      2039      2041      2040      2039      2042
      2041      2039      2042      2042      2045      2046      2042      2045      2047
      2043      2042      2044      2043      2042      2045      2044      2042      2045
      2045      2047      2048      2045      2047      2049      2046      2045      2047
      2047      2049      2050      2047      2049      2051      2047      2049      2052
      2048      2047      2049      2049      2052      2053      2049      2052      2054
      2049      2052      2055      2050      2049      2051      2050      2049      2052
      2051      2049      2052      2052      2055      2056      2052      2055      2057
      2052      2055      2058      2053      2052      2054      2053      2052      2055
      2054      2052      2055      2055      2058      2059      2055      2058      2060
      2055      2058      2061      2056      2055      2057      2056      2055      2058
      2057      2055      2058      2058      2061      2062      2058      2061      2063
      2058      2061      2064      2059      2058      2060      2059      2058      2061
      2060      2058      2061      2061      2064      2065      2061      2064      2066
      2061      2064      2067      2062      2061      2063      2062      2061      2064
      2063      2061      2064      2064      2067      2068      2064      2067      2069
      2064      2067      2070      2065      2064      2066      2065      2064      2067
      2066      2064      2067      2067      2070      2071      2067      2070      2072
      2067      2070      2073      2068      2067      2069      2068      2067      2070
      2069      2067      2070      2071      2070      2072      2071      2070      2073
      2072      2070      2073      2074      2077      2078      2074      2077      2079
      2074      2077      2080      2075      2074      2076      2075      2074      2077
      2076      2074      2077      2077      2080      2081      2077      2080      2082
      2077      2080      2083      2078      2077      2079      2078      2077      2080
      2079      2077      2080      2080      2083      2084      2080      2083      2085
      2080      2083      2086      2081      2080      2082      2081      2080      2083
      2082      2080      2083      2083      2086      2087      2083      2086      2088
      2083      2086      2089      2084      2083      2085      2084      2083      2086
      2085      2083      2086      2086      2089      2090      2086      2089      2091
      2086      2089      2092      2087      2086      2088      2087      2086      2089
      2088      2086      2089      2089      2092      2093      2089      2092      2094
      2089      2092      2095      2090      2089      2091      2090      2089      2092
      2091      2089      2092      2092      2095      2096      2092      2095      2097
      2092      2095      2098      2093      2092      2094      2093      2092      2095
      2094      2092      2095      2095      2098      2099      2095      2098      2100
      2095      2098      2101      2096      2095      2097      2096      2095      2098
      2097      2095      2098      2098      2101      2102      2098      2101      2103
      2098      2101      2104      2099      2098      2100      2099      2098      2101
      2100      2098      2101      2101      2104      2105      2101      2104      2106
      2101      2104      2107      2102      2101      2103      2102      2101      2104
      2103      2101      2104      2104      2107      2108      2104      2107      2109
      2104      2107      2110      2105      2104      2106      2105      2104      2107
      2106      2104      2107      2107      2110      2111      2107      2110      2112
      2107      2110      2113      2108      2107      2109      2108      2107      2110
      2109      2107      2110      2110      2113      2114      2110      2113      2115
      2110      2113      2116      2111      2110      2112      2111      2110      2113
      2112      2110      2113      2114      2113      2115      2114      2113      2116
      2115      2113      2116      2117      2118      2119      2117      2118      2120
      2117      2118      2133      2117      2121      2122      2117      2121      2123
      2117      2121      2124      2117      2125      2126      2117      2125      2127
      2117      2125      2128      2117      2129      2130      2117      2129      2131
      2117      2129      2132      2118      2117      2121      2118      2117      2125
      2118      2117      2129      2118      2133      2134      2118      2133      2135
      2118      2133      2139      2119      2118      2120      2119      2118      2133
      2120      2118      2133      2121      2117      2125      2121      2117      2129
      2122      2121      2123      2122      2121      2124      2123      2121      2124
      2125      2117      2129      2126      2125      2127      2126      2125      2128
      2127      2125      2128      2130      2129      2131      2130      2129      2132
      2131      2129      2132      2133      2139      2136      2134      2133      2135
      2134      2133      2139      2135      2133      2139      2136      2140      2141
      2137      2136      2138      2137      2136      2139      2137      2136      2140
      2138      2136      2139      2138      2136      2140      2139      2136      2140
      2140      2141      2142      2140      2141      2143      2140      2141      2144
      2141      2144      2145      2141      2144      2146      2141      2144      2152
      2142      2141      2143      2142      2141      2144      2143      2141      2144
      2144      2146      2147      2144      2152      2153      2144      2152      2154
      2144      2152      2155      2145      2144      2146      2145      2144      2152
      2146      2144      2152      2146      2147      2148      2146      2147      2149
      2147      2149      2150      2147      2149      2151      2147      2149      2161
      2148      2147      2149      2149      2161      2162      2149      2161      2163
      2149      2161      2164      2150      2149      2151      2150      2149      2161
      2151      2149      2161      2152      2155      2156      2153      2152      2154
      2153      2152      2155      2154      2152      2155      2155      2156      2157
      2155      2156      2158      2156      2158      2159      2156      2158      2160
      2156      2158      2208      2157      2156      2158      2158      2208      2209
      2158      2208      2210      2158      2208      2211      2159      2158      2160
      2159      2158      2208      2160      2158      2208      2161      2164      2165
      2161      2164      2166      2161      2164      2167      2162      2161      2163
      2162      2161      2164      2163      2161      2164      2164      2167      2168
      2164      2167      2169      2164      2167      2170      2165      2164      2166
      2165      2164      2167      2166      2164      2167      2167      2170      2171
      2167      2170      2172      2167      2170      2173      2168      2167      2169
      2168      2167      2170      2169      2167      2170      2170      2173      2174
      2170      2173      2175      2170      2173      2176      2171      2170      2172
      2171      2170      2173      2172      2170      2173      2173      2176      2177
      2173      2176      2178      2173      2176      2179      2174      2173      2175
      2174      2173      2176      2175      2173      2176      2176      2179      2180
      2176      2179      2181      2177      2176      2178      2177      2176      2179
      2178      2176      2179      2179      2181      2182      2179      2181      2183
      2180      2179      2181      2181      2183      2184      2181      2183      2185
      2181      2183      2186      2182      2181      2183      2183      2186      2187
      2183      2186      2188      2183      2186      2189      2184      2183      2185
      2184      2183      2186      2185      2183      2186      2186      2189      2190
      2186      2189      2191      2186      2189      2192      2187      2186      2188
      2187      2186      2189      2188      2186      2189      2189      2192      2193
      2189      2192      2194      2189      2192      2195      2190      2189      2191
      2190      2189      2192      2191      2189      2192      2192      2195      2196
      2192      2195      2197      2192      2195      2198      2193      2192      2194
      2193      2192      2195      2194      2192      2195      2195      2198      2199
      2195      2198      2200      2195      2198      2201      2196      2195      2197
      2196      2195      2198      2197      2195      2198      2198      2201      2202
      2198      2201      2203      2198      2201      2204      2199      2198      2200
      2199      2198      2201      2200      2198      2201      2201      2204      2205
      2201      2204      2206      2201      2204      2207      2202      2201      2203
      2202      2201      2204      2203      2201      2204      2205      2204      2206
      2205      2204      2207      2206      2204      2207      2208      2211      2212
      2208      2211      2213      2208      2211      2214      2209      2208      2210
      2209      2208      2211      2210      2208      2211      2211      2214      2215
      2211      2214      2216      2211      2214      2217      2212      2211      2213
      2212      2211      2214      2213      2211      2214      2214      2217      2218
      2214      2217      2219      2214      2217      2220      2215      2214      2216
      2215      2214      2217      2216      2214      2217      2217      2220      2221
      2217      2220      2222      2217      2220      2223      2218      2217      2219
      2218      2217      2220      2219      2217      2220      2220      2223      2224
      2220      2223      2225      2220      2223      2226      2221      2220      2222
      2221      2220      2223      2222      2220      2223      2223      2226      2227
      2223      2226      2228      2223      2226      2229      2224      2223      2225
      2224      2223      2226      2225      2223      2226      2226      2229      2230
      2226      2229      2231      2226      2229      2232      2227      2226      2228
      2227      2226      2229      2228      2226      2229      2229      2232      2233
      2229      2232      2234      2229      2232      2235      2230      2229      2231
      2230      2229      2232      2231      2229      2232      2232      2235      2236
      2232      2235      2237      2232      2235      2238      2233      2232      2234
      2233      2232      2235      2234      2232      2235      2235      2238      2239
      2235      2238      2240      2235      2238      2241      2236      2235      2237
      2236      2235      2238      2237      2235      2238      2238      2241      2242
      2238      2241      2243      2238      2241      2244      2239      2238      2240
      2239      2238      2241      2240      2238      2241      2241      2244      2245
      2241      2244      2246      2241      2244      2247      2242      2241      2243
      2242      2241      2244      2243      2241      2244      2244      2247      2248
      2244      2247      2249      2244      2247      2250      2245      2244      2246
      2245      2244      2247      2246      2244      2247      2248      2247      2249
      2248      2247      2250      2249      2247      2250      2251      2252      2253
      2251      2252      2254      2251      2252      2267      2251      2255      2256
      2251      2255      2257      2251      2255      2258      2251      2259      2260
      2251      2259      2261      2251      2259      2262      2251      2263      2264
      2251      2263      2265      2251      2263      2266      2252      2251      2255
      2252      2251      2259      2252      2251      2263      2252      2267      2268
      2252      2267      2269      2252      2267      2273      2253      2252      2254
      2253      2252      2267      2254      2252      2267      2255      2251      2259
      2255      2251      2263      2256      2255      2257      2256      2255      2258
      2257      2255      2258      2259      2251      2263      2260      2259      2261
      2260      2259      2262      2261      2259      2262      2264      2263      2265
      2264      2263      2266      2265      2263      2266      2267      2273      2270
      2268      2267      2269      2268      2267      2273      2269      2267      2273
      2270      2274      2275      2271      2270      2272      2271      2270      2273
      2271      2270      2274      2272      2270      2273      2272      2270      2274
      2273      2270      2274      2274      2275      2276      2274      2275      2277
      2274      2275      2278      2275      2278      2279      2275      2278      2280
      2275      2278      2286      2276      2275      2277      2276      2275      2278
      2277      2275      2278      2278      2280      2281      2278      2286      2287
      2278      2286      2288      2278      2286      2289      2279      2278      2280
      2279      2278      2286      2280      2278      2286      2280      2281      2282
      2280      2281      2283      2281      2283      2284      2281      2283      2285
      2281      2283      2295      2282      2281      2283      2283      2295      2296
      2283      2295      2297      2283      2295      2298      2284      2283      2285
      2284      2283      2295      2285      2283      2295      2286      2289      2290
      2287      2286      2288      2287      2286      2289      2288      2286      2289
      2289      2290      2291      2289      2290      2292      2290      2292      2293
      2290      2292      2294      2290      2292      2342      2291      2290      2292
      2292      2342      2343      2292      2342      2344      2292      2342      2345
      2293      2292      2294      2293      2292      2342      2294      2292      2342
      2295      2298      2299      2295      2298      2300      2295      2298      2301
      2296      2295      2297      2296      2295      2298      2297      2295      2298
      2298      2301      2302      2298      2301      2303      2298      2301      2304
      2299      2298      2300      2299      2298      2301      2300      2298      2301
      2301      2304      2305      2301      2304      2306      2301      2304      2307
      2302      2301      2303      2302      2301      2304      2303      2301      2304
      2304      2307      2308      2304      2307      2309      2304      2307      2310
      2305      2304      2306      2305      2304      2307      2306      2304      2307
      2307      2310      2311      2307      2310      2312      2307      2310      2313
      2308      2307      2309      2308      2307      2310      2309      2307      2310
      2310      2313      2314      2310      2313      2315      2311      2310      2312
      2311      2310      2313      2312      2310      2313      2313      2315      2316
      2313      2315      2317      2314      2313      2315      2315      2317      2318
      2315      2317      2319      2315      2317      2320      2316      2315      2317
      2317      2320      2321      2317      2320      2322      2317      2320      2323
      2318      2317      2319      2318      2317      2320      2319      2317      2320
      2320      2323      2324      2320      2323      2325      2320      2323      2326
      2321      2320      2322      2321      2320      2323      2322      2320      2323
      2323      2326      2327      2323      2326      2328      2323      2326      2329
      2324      2323      2325      2324      2323      2326      2325      2323      2326
      2326      2329      2330      2326      2329      2331      2326      2329      2332
      2327      2326      2328      2327      2326      2329      2328      2326      2329
      2329      2332      2333      2329      2332      2334      2329      2332      2335
      2330      2329      2331      2330      2329      2332      2331      2329      2332
      2332      2335      2336      2332      2335      2337      2332      2335      2338
      2333      2332      2334      2333      2332      2335      2334      2332      2335
      2335      2338      2339      2335      2338      2340      2335      2338      2341
      2336      2335      2337      2336      2335      2338      2337      2335      2338
      2339      2338      2340      2339      2338      2341      2340      2338      2341
      2342      2345      2346      2342      2345      2347      2342      2345      2348
      2343      2342      2344      2343      2342      2345      2344      2342      2345
      2345      2348      2349      2345      2348      2350      2345      2348      2351
      2346      2345      2347      2346      2345      2348      2347      2345      2348
      2348      2351      2352      2348      2351      2353      2348      2351      2354
      2349      2348      2350      2349      2348      2351      2350      2348      2351
      2351      2354      2355      2351      2354      2356      2351      2354      2357
      2352      2351      2353      2352      2351      2354      2353      2351      2354
      2354      2357      2358      2354      2357      2359      2354      2357      2360
      2355      2354      2356      2355      2354      2357      2356      2354      2357
      2357      2360      2361      2357      2360      2362      2357      2360      2363
      2358      2357      2359      2358      2357      2360      2359      2357      2360
      2360      2363      2364      2360      2363      2365      2360      2363      2366
      2361      2360      2362      2361      2360      2363      2362      2360      2363
      2363      2366      2367      2363      2366      2368      2363      2366      2369
      2364      2363      2365      2364      2363      2366      2365      2363      2366
      2366      2369      2370      2366      2369      2371      2366      2369      2372
      2367      2366      2368      2367      2366      2369      2368      2366      2369
      2369      2372      2373      2369      2372      2374      2369      2372      2375
      2370      2369      2371      2370      2369      2372      2371      2369      2372
      2372      2375      2376      2372      2375      2377      2372      2375      2378
      2373      2372      2374      2373      2372      2375      2374      2372      2375
      2375      2378      2379      2375      2378      2380      2375      2378      2381
      2376      2375      2377      2376      2375      2378      2377      2375      2378
      2378      2381      2382      2378      2381      2383      2378      2381      2384
      2379      2378      2380      2379      2378      2381      2380      2378      2381
      2382      2381      2383      2382      2381      2384      2383      2381      2384
      2385      2386      2387      2385      2386      2388      2385      2386      2401
      2385      2389      2390      2385      2389      2391      2385      2389      2392
      2385      2393      2394      2385      2393      2395      2385      2393      2396
      2385      2397      2398      2385      2397      2399      2385      2397      2400
      2386      2385      2389      2386      2385      2393      2386      2385      2397
      2386      2401      2402      2386      2401      2403      2386      2401      2407
      2387      2386      2388      2387      2386      2401      2388      2386      2401
      2389      2385      2393      2389      2385      2397      2390      2389      2391
      2390      2389      2392      2391      2389      2392      2393      2385      2397
      2394      2393      2395      2394      2393      2396      2395      2393      2396
      2398      2397      2399      2398      2397      2400      2399      2397      2400
      2401      2407      2404      2402      2401      2403      2402      2401      2407
      2403      2401      2407      2404      2408      2409      2405      2404      2406
      2405      2404      2407      2405      2404      2408      2406      2404      2407
      2406      2404      2408      2407      2404      2408      2408      2409      2410
      2408      2409      2411      2408      2409      2412      2409      2412      2413
      2409      2412      2414      2409      2412      2420      2410      2409      2411
      2410      2409      2412      2411      2409      2412      2412      2414      2415
      2412      2420      2421      2412      2420      2422      2412      2420      2423
      2413      2412      2414      2413      2412      2420      2414      2412      2420
      2414      2415      2416      2414      2415      2417      2415      2417      2418
      2415      2417      2419      2415      2417      2429      2416      2415      2417
      2417      2429      2430      2417      2429      2431      2417      2429      2432
      2418      2417      2419      2418      2417      2429      2419      2417      2429
      2420      2423      2424      2421      2420      2422      2421      2420      2423
      2422      2420      2423      2423      2424      2425      2423      2424      2426
      2424      2426      2427      2424      2426      2428      2424      2426      2476
      2425      2424      2426      2426      2476      2477      2426      2476      2478
      2426      2476      2479      2427      2426      2428      2427      2426      2476
      2428      2426      2476      2429      2432      2433      2429      2432      2434
      2429      2432      2435      2430      2429      2431      2430      2429      2432
      2431      2429      2432      2432      2435      2436      2432      2435      2437
      2432      2435      2438      2433      2432      2434      2433      2432      2435
      2434      2432      2435      2435      2438      2439      2435      2438      2440
      2435      2438      2441      2436      2435      2437      2436      2435      2438
      2437      2435      2438      2438      2441      2442      2438      2441      2443
      2438      2441      2444      2439      2438      2440      2439      2438      2441
      2440      2438      2441      2441      2444      2445      2441      2444      2446
      2441      2444      2447      2442      2441      2443      2442      2441      2444
      2443      2441      2444      2444      2447      2448      2444      2447      2449
      2445      2444      2446      2445      2444      2447      2446      2444      2447
      2447      2449      2450      2447      2449      2451      2448      2447      2449
      2449      2451      2452      2449      2451      2453      2449      2451      2454
      2450      2449      2451      2451      2454      2455      2451      2454      2456
      2451      2454      2457      2452      2451      2453      2452      2451      2454
      2453      2451      2454      2454      2457      2458      2454      2457      2459
      2454      2457      2460      2455      2454      2456      2455      2454      2457
      2456      2454      2457      2457      2460      2461      2457      2460      2462
      2457      2460      2463      2458      2457      2459      2458      2457      2460
      2459      2457      2460      2460      2463      2464      2460      2463      2465
      2460      2463      2466      2461      2460      2462      2461      2460      2463
      2462      2460      2463      2463      2466      2467      2463      2466      2468
      2463      2466      2469      2464      2463      2465      2464      2463      2466
      2465      2463      2466      2466      2469      2470      2466      2469      2471
      2466      2469      2472      2467      2466      2468      2467      2466      2469
      2468      2466      2469      2469      2472      2473      2469      2472      2474
      2469      2472      2475      2470      2469      2471      2470      2469      2472
      2471      2469      2472      2473      2472      2474      2473      2472      2475
      2474      2472      2475      2476      2479      2480      2476      2479      2481
      2476      2479      2482      2477      2476      2478      2477      2476      2479
      2478      2476      2479      2479      2482      2483      2479      2482      2484
      2479      2482      2485      2480      2479      2481      2480      2479      2482
      2481      2479      2482      2482      2485      2486      2482      2485      2487
      2482      2485      2488      2483      2482      2484      2483      2482      2485
      2484      2482      2485      2485      2488      2489      2485      2488      2490
      2485      2488      2491      2486      2485      2487      2486      2485      2488
      2487      2485      2488      2488      2491      2492      2488      2491      2493
      2488      2491      2494      2489      2488      2490      2489      2488      2491
      2490      2488      2491      2491      2494      2495      2491      2494      2496
      2491      2494      2497      2492      2491      2493      2492      2491      2494
      2493      2491      2494      2494      2497      2498      2494      2497      2499
      2494      2497      2500      2495      2494      2496      2495      2494      2497
      2496      2494      2497      2497      2500      2501      2497      2500      2502
      2497      2500      2503      2498      2497      2499      2498      2497      2500
      2499      2497      2500      2500      2503      2504      2500      2503      2505
      2500      2503      2506      2501      2500      2502      2501      2500      2503
      2502      2500      2503      2503      2506      2507      2503      2506      2508
      2503      2506      2509      2504      2503      2505      2504      2503      2506
      2505      2503      2506      2506      2509      2510      2506      2509      2511
      2506      2509      2512      2507      2506      2508      2507      2506      2509
      2508      2506      2509      2509      2512      2513      2509      2512      2514
      2509      2512      2515      2510      2509      2511      2510      2509      2512
      2511      2509      2512      2512      2515      2516      2512      2515      2517
      2512      2515      2518      2513      2512      2514      2513      2512      2515
      2514      2512      2515      2516      2515      2517      2516      2515      2518
      2517      2515      2518      2519      2520      2521      2519      2520      2522
      2519      2520      2535      2519      2523      2524      2519      2523      2525
      2519      2523      2526      2519      2527      2528      2519      2527      2529
      2519      2527      2530      2519      2531      2532      2519      2531      2533
      2519      2531      2534      2520      2519      2523      2520      2519      2527
      2520      2519      2531      2520      2535      2536      2520      2535      2537
      2520      2535      2541      2521      2520      2522      2521      2520      2535
      2522      2520      2535      2523      2519      2527      2523      2519      2531
      2524      2523      2525      2524      2523      2526      2525      2523      2526
      2527      2519      2531      2528      2527      2529      2528      2527      2530
      2529      2527      2530      2532      2531      2533      2532      2531      2534
      2533      2531      2534      2535      2541      2538      2536      2535      2537
      2536      2535      2541      2537      2535      2541      2538      2542      2543
      2539      2538      2540      2539      2538      2541      2539      2538      2542
      2540      2538      2541      2540      2538      2542      2541      2538      2542
      2542      2543      2544      2542      2543      2545      2542      2543      2546
      2543      2546      2547      2543      2546      2548      2543      2546      2554
      2544      2543      2545      2544      2543      2546      2545      2543      2546
      2546      2548      2549      2546      2554      2555      2546      2554      2556
      2546      2554      2557      2547      2546      2548      2547      2546      2554
      2548      2546      2554      2548      2549      2550      2548      2549      2551
      2549      2551      2552      2549      2551      2553      2549      2551      2563
      2550      2549      2551      2551      2563      2564      2551      2563      2565
      2551      2563      2566      2552      2551      2553      2552      2551      2563
      2553      2551      2563      2554      2557      2558      2555      2554      2556
      2555      2554      2557      2556      2554      2557      2557      2558      2559
      2557      2558      2560      2558      2560      2561      2558      2560      2562
      2558      2560      2610      2559      2558      2560      2560      2610      2611
      2560      2610      2612      2560      2610      2613      2561      2560      2562
      2561      2560      2610      2562      2560      2610      2563      2566      2567
      2563      2566      2568      2563      2566      2569      2564      2563      2565
      2564      2563      2566      2565      2563      2566      2566      2569      2570
      2566      2569      2571      2566      2569      2572      2567      2566      2568
      2567      2566      2569      2568      2566      2569      2569      2572      2573
      2569      2572      2574      2569      2572      2575      2570      2569      2571
      2570      2569      2572      2571      2569      2572      2572      2575      2576
      2572      2575      2577      2572      2575      2578      2573      2572      2574
      2573      2572      2575      2574      2572      2575      2575      2578      2579
      2575      2578      2580      2575      2578      2581      2576      2575      2577
      2576      2575      2578      2577      2575      2578      2578      2581      2582
      2578      2581      2583      2579      2578      2580      2579      2578      2581
      2580      2578      2581      2581      2583      2584      2581      2583      2585
      2582      2581      2583      2583      2585      2586      2583      2585      2587
      2583      2585      2588      2584      2583      2585      2585      2588      2589
      2585      2588      2590      2585      2588      2591      2586      2585      2587
      2586      2585      2588      2587      2585      2588      2588      2591      2592
      2588      2591      2593      2588      2591      2594      2589      2588      2590
      2589      2588      2591      2590      2588      2591      2591      2594      2595
      2591      2594      2596      2591      2594      2597      2592      2591      2593
      2592      2591      2594      2593      2591      2594      2594      2597      2598
      2594      2597      2599      2594      2597      2600      2595      2594      2596
      2595      2594      2597      2596      2594      2597      2597      2600      2601
      2597      2600      2602      2597      2600      2603      2598      2597      2599
      2598      2597      2600      2599      2597      2600      2600      2603      2604
      2600      2603      2605      2600      2603      2606      2601      2600      2602
      2601      2600      2603      2602      2600      2603      2603      2606      2607
      2603      2606      2608      2603      2606      2609      2604      2603      2605
      2604      2603      2606      2605      2603      2606      2607      2606      2608
      2607      2606      2609      2608      2606      2609      2610      2613      2614
      2610      2613      2615      2610      2613      2616      2611      2610      2612
      2611      2610      2613      2612      2610      2613      2613      2616      2617
      2613      2616      2618      2613      2616      2619      2614      2613      2615
      2614      2613      2616      2615      2613      2616      2616      2619      2620
      2616      2619      2621      2616      2619      2622      2617      2616      2618
      2617      2616      2619      2618      2616      2619      2619      2622      2623
      2619      2622      2624      2619      2622      2625      2620      2619      2621
      2620      2619      2622      2621      2619      2622      2622      2625      2626
      2622      2625      2627      2622      2625      2628      2623      2622      2624
      2623      2622      2625      2624      2622      2625      2625      2628      2629
      2625      2628      2630      2625      2628      2631      2626      2625      2627
      2626      2625      2628      2627      2625      2628      2628      2631      2632
      2628      2631      2633      2628      2631      2634      2629      2628      2630
      2629      2628      2631      2630      2628      2631      2631      2634      2635
      2631      2634      2636      2631      2634      2637      2632      2631      2633
      2632      2631      2634      2633      2631      2634      2634      2637      2638
      2634      2637      2639      2634      2637      2640      2635      2634      2636
      2635      2634      2637      2636      2634      2637      2637      2640      2641
      2637      2640      2642      2637      2640      2643      2638      2637      2639
      2638      2637      2640      2639      2637      2640      2640      2643      2644
      2640      2643      2645      2640      2643      2646      2641      2640      2642
      2641      2640      2643      2642      2640      2643      2643      2646      2647
      2643      2646      2648      2643      2646      2649      2644      2643      2645
      2644      2643      2646      2645      2643      2646      2646      2649      2650
      2646      2649      2651      2646      2649      2652      2647      2646      2648
      2647      2646      2649      2648      2646      2649      2650      2649      2651
      2650      2649      2652      2651      2649      2652      2653      2654      2655
      2653      2654      2656      2653      2654      2669      2653      2657      2658
      2653      2657      2659      2653      2657      2660      2653      2661      2662
      2653      2661      2663      2653      2661      2664      2653      2665      2666
      2653      2665      2667      2653      2665      2668      2654      2653      2657
      2654      2653      2661      2654      2653      2665      2654      2669      2670
      2654      2669      2671      2654      2669      2675      2655      2654      2656
      2655      2654      2669      2656      2654      2669      2657      2653      2661
      2657      2653      2665      2658      2657      2659      2658      2657      2660
      2659      2657      2660      2661      2653      2665      2662      2661      2663
      2662      2661      2664      2663      2661      2664      2666      2665      2667
      2666      2665      2668      2667      2665      2668      2669      2675      2672
      2670      2669      2671      2670      2669      2675      2671      2669      2675
      2672      2676      2677      2673      2672      2674      2673      2672      2675
      2673      2672      2676      2674      2672      2675      2674      2672      2676
      2675      2672      2676      2676      2677      2678      2676      2677      2679
      2676      2677      2680      2677      2680      2681      2677      2680      2682
      2677      2680      2688      2678      2677      2679      2678      2677      2680
      2679      2677      2680      2680      2682      2683      2680      2688      2689
      2680      2688      2690      2680      2688      2691      2681      2680      2682
      2681      2680      2688      2682      2680      2688      2682      2683      2684
      2682      2683      2685      2683      2685      2686      2683      2685      2687
      2683      2685      2697      2684      2683      2685      2685      2697      2698
      2685      2697      2699      2685      2697      2700      2686      2685      2687
      2686      2685      2697      2687      2685      2697      2688      2691      2692
      2689      2688      2690      2689      2688      2691      2690      2688      2691
      2691      2692      2693      2691      2692      2694      2692      2694      2695
      2692      2694      2696      2692      2694      2744      2693      2692      2694
      2694      2744      2745      2694      2744      2746      2694      2744      2747
      2695      2694      2696      2695      2694      2744      2696      2694      2744
      2697      2700      2701      2697      2700      2702      2697      2700      2703
      2698      2697      2699      2698      2697      2700      2699      2697      2700
      2700      2703      2704      2700      2703      2705      2700      2703      2706
      2701      2700      2702      2701      2700      2703      2702      2700      2703
      2703      2706      2707      2703      2706      2708      2703      2706      2709
      2704      2703      2705      2704      2703      2706      2705      2703      2706
      2706      2709      2710      2706      2709      2711      2706      2709      2712
      2707      2706      2708      2707      2706      2709      2708      2706      2709
      2709      2712      2713      2709      2712      2714      2709      2712      2715
      2710      2709      2711      2710      2709      2712      2711      2709      2712
      2712      2715      2716      2712      2715      2717      2713      2712      2714
      2713      2712      2715      2714      2712      2715      2715      2717      2718
      2715      2717      2719      2716      2715      2717      2717      2719      2720
      2717      2719      2721      2717      2719      2722      2718      2717      2719
      2719      2722      2723      2719      2722      2724      2719      2722      2725
      2720      2719      2721      2720      2719      2722      2721      2719      2722
      2722      2725      2726      2722      2725      2727      2722      2725      2728
      2723      2722      2724      2723      2722      2725      2724      2722      2725
      2725      2728      2729      2725      2728      2730      2725      2728      2731
      2726      2725      2727      2726      2725      2728      2727      2725      2728
      2728      2731      2732      2728      2731      2733      2728      2731      2734
      2729      2728      2730      2729      2728      2731      2730      2728      2731
      2731      2734      2735      2731      2734      2736      2731      2734      2737
      2732      2731      2733      2732      2731      2734      2733      2731      2734
      2734      2737      2738      2734      2737      2739      2734      2737      2740
      2735      2734      2736      2735      2734      2737      2736      2734      2737
      2737      2740      2741      2737      2740      2742      2737      2740      2743
      2738      2737      2739      2738      2737      2740      2739      2737      2740
      2741      2740      2742      2741      2740      2743      2742      2740      2743
      2744      2747      2748      2744      2747      2749      2744      2747      2750
      2745      2744      2746      2745      2744      2747      2746      2744      2747
      2747      2750      2751      2747      2750      2752      2747      2750      2753
      2748      2747      2749      2748      2747      2750      2749      2747      2750
      2750      2753      2754      2750      2753      2755      2750      2753      2756
      2751      2750      2752      2751      2750      2753      2752      2750      2753
      2753      2756      2757      2753      2756      2758      2753      2756      2759
      2754      2753      2755      2754      2753      2756      2755      2753      2756
      2756      2759      2760      2756      2759      2761      2756      2759      2762
      2757      2756      2758      2757      2756      2759      2758      2756      2759
      2759      2762      2763      2759      2762      2764      2759      2762      2765
      2760      2759      2761      2760      2759      2762      2761      2759      2762
      2762      2765      2766      2762      2765      2767      2762      2765      2768
      2763      2762      2764      2763      2762      2765      2764      2762      2765
      2765      2768      2769      2765      2768      2770      2765      2768      2771
      2766      2765      2767      2766      2765      2768      2767      2765      2768
      2768      2771      2772      2768      2771      2773      2768      2771      2774
      2769      2768      2770      2769      2768      2771      2770      2768      2771
      2771      2774      2775      2771      2774      2776      2771      2774      2777
      2772      2771      2773      2772      2771      2774      2773      2771      2774
      2774      2777      2778      2774      2777      2779      2774      2777      2780
      2775      2774      2776      2775      2774      2777      2776      2774      2777
      2777      2780      2781      2777      2780      2782      2777      2780      2783
      2778      2777      2779      2778      2777      2780      2779      2777      2780
      2780      2783      2784      2780      2783      2785      2780      2783      2786
      2781      2780      2782      2781      2780      2783      2782      2780      2783
      2784      2783      2785      2784      2783      2786      2785      2783      2786
      2787      2788      2789      2787      2788      2790      2787      2788      2803
      2787      2791      2792      2787      2791      2793      2787      2791      2794
      2787      2795      2796      2787      2795      2797      2787      2795      2798
      2787      2799      2800      2787      2799      2801      2787      2799      2802
      2788      2787      2791      2788      2787      2795      2788      2787      2799
      2788      2803      2804      2788      2803      2805      2788      2803      2809
      2789      2788      2790      2789      2788      2803      2790      2788      2803
      2791      2787      2795      2791      2787      2799      2792      2791      2793
      2792      2791      2794      2793      2791      2794      2795      2787      2799
      2796      2795      2797      2796      2795      2798      2797      2795      2798
      2800      2799      2801      2800      2799      2802      2801      2799      2802
      2803      2809      2806      2804      2803      2805      2804      2803      2809
      2805      2803      2809      2806      2810      2811      2807      2806      2808
      2807      2806      2809      2807      2806      2810      2808      2806      2809
      2808      2806      2810      2809      2806      2810      2810      2811      2812
      2810      2811      2813      2810      2811      2814      2811      2814      2815
      2811      2814      2816      2811      2814      2822      2812      2811      2813
      2812      2811      2814      2813      2811      2814      2814      2816      2817
      2814      2822      2823      2814      2822      2824      2814      2822      2825
      2815      2814      2816      2815      2814      2822      2816      2814      2822
      2816      2817      2818      2816      2817      2819      2817      2819      2820
      2817      2819      2821      2817      2819      2831      2818      2817      2819
      2819      2831      2832      2819      2831      2833      2819      2831      2834
      2820      2819      2821      2820      2819      2831      2821      2819      2831
      2822      2825      2826      2823      2822      2824      2823      2822      2825
      2824      2822      2825      2825      2826      2827      2825      2826      2828
      2826      2828      2829      2826      2828      2830      2826      2828      2878
      2827      2826      2828      2828      2878      2879      2828      2878      2880
      2828      2878      2881      2829      2828      2830      2829      2828      2878
      2830      2828      2878      2831      2834      2835      2831      2834      2836
      2831      2834      2837      2832      2831      2833      2832      2831      2834
      2833      2831      2834      2834      2837      2838      2834      2837      2839
      2834      2837      2840      2835      2834      2836      2835      2834      2837
      2836      2834      2837      2837      2840      2841      2837      2840      2842
      2837      2840      2843      2838      2837      2839      2838      2837      2840
      2839      2837      2840      2840      2843      2844      2840      2843      2845
      2840      2843      2846      2841      2840      2842      2841      2840      2843
      2842      2840      2843      2843      2846      2847      2843      2846      2848
      2843      2846      2849      2844      2843      2845      2844      2843      2846
      2845      2843      2846      2846      2849      2850      2846      2849      2851
      2847      2846      2848      2847      2846      2849      2848      2846      2849
      2849      2851      2852      2849      2851      2853      2850      2849      2851
      2851      2853      2854      2851      2853      2855      2851      2853      2856
      2852      2851      2853      2853      2856      2857      2853      2856      2858
      2853      2856      2859      2854      2853      2855      2854      2853      2856
      2855      2853      2856      2856      2859      2860      2856      2859      2861
      2856      2859      2862      2857      2856      2858      2857      2856      2859
      2858      2856      2859      2859      2862      2863      2859      2862      2864
      2859      2862      2865      2860      2859      2861      2860      2859      2862
      2861      2859      2862      2862      2865      2866      2862      2865      2867
      2862      2865      2868      2863      2862      2864      2863      2862      2865
      2864      2862      2865      2865      2868      2869      2865      2868      2870
      2865      2868      2871      2866      2865      2867      2866      2865      2868
      2867      2865      2868      2868      2871      2872      2868      2871      2873
      2868      2871      2874      2869      2868      2870      2869      2868      2871
      2870      2868      2871      2871      2874      2875      2871      2874      2876
      2871      2874      2877      2872      2871      2873      2872      2871      2874
      2873      2871      2874      2875      2874      2876      2875      2874      2877
      2876      2874      2877      2878      2881      2882      2878      2881      2883
      2878      2881      2884      2879      2878      2880      2879      2878      2881
      2880      2878      2881      2881      2884      2885      2881      2884      2886
      2881      2884      2887      2882      2881      2883      2882      2881      2884
      2883      2881      2884      2884      2887      2888      2884      2887      2889
      2884      2887      2890      2885      2884      2886      2885      2884      2887
      2886      2884      2887      2887      2890      2891      2887      2890      2892
      2887      2890      2893      2888      2887      2889      2888      2887      2890
      2889      2887      2890      2890      2893      2894      2890      2893      2895
      2890      2893      2896      2891      2890      2892      2891      2890      2893
      2892      2890      2893      2893      2896      2897      2893      2896      2898
      2893      2896      2899      2894      2893      2895      2894      2893      2896
      2895      2893      2896      2896      2899      2900      2896      2899      2901
      2896      2899      2902      2897      2896      2898      2897      2896      2899
      2898      2896      2899      2899      2902      2903      2899      2902      2904
      2899      2902      2905      2900      2899      2901      2900      2899      2902
      2901      2899      2902      2902      2905      2906      2902      2905      2907
      2902      2905      2908      2903      2902      2904      2903      2902      2905
      2904      2902      2905      2905      2908      2909      2905      2908      2910
      2905      2908      2911      2906      2905      2907      2906      2905      2908
      2907      2905      2908      2908      2911      2912      2908      2911      2913
      2908      2911      2914      2909      2908      2910      2909      2908      2911
      2910      2908      2911      2911      2914      2915      2911      2914      2916
      2911      2914      2917      2912      2911      2913      2912      2911      2914
      2913      2911      2914      2914      2917      2918      2914      2917      2919
      2914      2917      2920      2915      2914      2916      2915      2914      2917
      2916      2914      2917      2918      2917      2919      2918      2917      2920
      2919      2917      2920      2921      2922      2923      2921      2922      2924
      2921      2922      2937      2921      2925      2926      2921      2925      2927
      2921      2925      2928      2921      2929      2930      2921      2929      2931
      2921      2929      2932      2921      2933      2934      2921      2933      2935
      2921      2933      2936      2922      2921      2925      2922      2921      2929
      2922      2921      2933      2922      2937      2938      2922      2937      2939
      2922      2937      2943      2923      2922      2924      2923      2922      2937
      2924      2922      2937      2925      2921      2929      2925      2921      2933
      2926      2925      2927      2926      2925      2928      2927      2925      2928
      2929      2921      2933      2930      2929      2931      2930      2929      2932
      2931      2929      2932      2934      2933      2935      2934      2933      2936
      2935      2933      2936      2937      2943      2940      2938      2937      2939
      2938      2937      2943      2939      2937      2943      2940      2944      2945
      2941      2940      2942      2941      2940      2943      2941      2940      2944
      2942      2940      2943      2942      2940      2944      2943      2940      2944
      2944      2945      2946      2944      2945      2947      2944      2945      2948
      2945      2948      2949      2945      2948      2950      2945      2948      2956
      2946      2945      2947      2946      2945      2948      2947      2945      2948
      2948      2950      2951      2948      2956      2957      2948      2956      2958
      2948      2956      2959      2949      2948      2950      2949      2948      2956
      2950      2948      2956      2950      2951      2952      2950      2951      2953
      2951      2953      2954      2951      2953      2955      2951      2953      2965
      2952      2951      2953      2953      2965      2966      2953      2965      2967
      2953      2965      2968      2954      2953      2955      2954      2953      2965
      2955      2953      2965      2956      2959      2960      2957      2956      2958
      2957      2956      2959      2958      2956      2959      2959      2960      2961
      2959      2960      2962      2960      2962      2963      2960      2962      2964
      2960      2962      3012      2961      2960      2962      2962      3012      3013
      2962      3012      3014      2962      3012      3015      2963      2962      2964
      2963      2962      3012      2964      2962      3012      2965      2968      2969
      2965      2968      2970      2965      2968      2971      2966      2965      2967
      2966      2965      2968      2967      2965      2968      2968      2971      2972
      2968      2971      2973      2968      2971      2974      2969      2968      2970
      2969      2968      2971      2970      2968      2971      2971      2974      2975
      2971      2974      2976      2971      2974      2977      2972      2971      2973
      2972      2971      2974      2973      2971      2974      2974      2977      2978
      2974      2977      2979      2974      2977      2980      2975      2974      2976
      2975      2974      2977      2976      2974      2977      2977      2980      2981
      2977      2980      2982      2977      2980      2983      2978      2977      2979
      2978      2977      2980      2979      2977      2980      2980      2983      2984
      2980      2983      2985      2981      2980      2982      2981      2980      2983
      2982      2980      2983      2983      2985      2986      2983      2985      2987
      2984      2983      2985      2985      2987      2988      2985      2987      2989
      2985      2987      2990      2986      2985      2987      2987      2990      2991
      2987      2990      2992      2987      2990      2993      2988      2987      2989
      2988      2987      2990      2989      2987      2990      2990      2993      2994
      2990      2993      2995      2990      2993      2996      2991      2990      2992
      2991      2990      2993      2992      2990      2993      2993      2996      2997
      2993      2996      2998      2993      2996      2999      2994      2993      2995
      2994      2993      2996      2995      2993      2996      2996      2999      3000
      2996      2999      3001      2996      2999      3002      2997      2996      2998
      2997      2996      2999      2998      2996      2999      2999      3002      3003
      2999      3002      3004      2999      3002      3005      3000      2999      3001
      3000      2999      3002      3001      2999      3002      3002      3005      3006
      3002      3005      3007      3002      3005      3008      3003      3002      3004
      3003      3002      3005      3004      3002      3005      3005      3008      3009
      3005      3008      3010      3005      3008      3011      3006      3005      3007
      3006      3005      3008      3007      3005      3008      3009      3008      3010
      3009      3008      3011      3010      3008      3011      3012      3015      3016
      3012      3015      3017      3012      3015      3018      3013      3012      3014
      3013      3012      3015      3014      3012      3015      3015      3018      3019
      3015      3018      3020      3015      3018      3021      3016      3015      3017
      3016      3015      3018      3017      3015      3018      3018      3021      3022
      3018      3021      3023      3018      3021      3024      3019      3018      3020
      3019      3018      3021      3020      3018      3021      3021      3024      3025
      3021      3024      3026      3021      3024      3027      3022      3021      3023
      3022      3021      3024      3023      3021      3024      3024      3027      3028
      3024      3027      3029      3024      3027      3030      3025      3024      3026
      3025      3024      3027      3026      3024      3027      3027      3030      3031
      3027      3030      3032      3027      3030      3033      3028      3027      3029
      3028      3027      3030      3029      3027      3030      3030      3033      3034
      3030      3033      3035      3030      3033      3036      3031      3030      3032
      3031      3030      3033      3032      3030      3033      3033      3036      3037
      3033      3036      3038      3033      3036      3039      3034      3033      3035
      3034      3033      3036      3035      3033      3036      3036      3039      3040
      3036      3039      3041      3036      3039      3042      3037      3036      3038
      3037      3036      3039      3038      3036      3039      3039      3042      3043
      3039      3042      3044      3039      3042      3045      3040      3039      3041
      3040      3039      3042      3041      3039      3042      3042      3045      3046
      3042      3045      3047      3042      3045      3048      3043      3042      3044
      3043      3042      3045      3044      3042      3045      3045      3048      3049
      3045      3048      3050      3045      3048      3051      3046      3045      3047
      3046      3045      3048      3047      3045      3048      3048      3051      3052
      3048      3051      3053      3048      3051      3054      3049      3048      3050
      3049      3048      3051      3050      3048      3051      3052      3051      3053
      3052      3051      3054      3053      3051      3054      3055      3056      3057
      3055      3056      3058      3055      3056      3071      3055      3059      3060
      3055      3059      3061      3055      3059      3062      3055      3063      3064
      3055      3063      3065      3055      3063      3066      3055      3067      3068
      3055      3067      3069      3055      3067      3070      3056      3055      3059
      3056      3055      3063      3056      3055      3067      3056      3071      3072
      3056      3071      3073      3056      3071      3077      3057      3056      3058
      3057      3056      3071      3058      3056      3071      3059      3055      3063
      3059      3055      3067      3060      3059      3061      3060      3059      3062
      3061      3059      3062      3063      3055      3067      3064      3063      3065
      3064      3063      3066      3065      3063      3066      3068      3067      3069
      3068      3067      3070      3069      3067      3070      3071      3077      3074
      3072      3071      3073      3072      3071      3077      3073      3071      3077
      3074      3078      3079      3075      3074      3076      3075      3074      3077
      3075      3074      3078      3076      3074      3077      3076      3074      3078
      3077      3074      3078      3078      3079      3080      3078      3079      3081
      3078      3079      3082      3079      3082      3083      3079      3082      3084
      3079      3082      3090      3080      3079      3081      3080      3079      3082
      3081      3079      3082      3082      3084      3085      3082      3090      3091
      3082      3090      3092      3082      3090      3093      3083      3082      3084
      3083      3082      3090      3084      3082      3090      3084      3085      3086
      3084      3085      3087      3085      3087      3088      3085      3087      3089
      3085      3087      3099      3086      3085      3087      3087      3099      3100
      3087      3099      3101      3087      3099      3102      3088      3087      3089
      3088      3087      3099      3089      3087      3099      3090      3093      3094
      3091      3090      3092      3091      3090      3093      3092      3090      3093
      3093      3094      3095      3093      3094      3096      3094      3096      3097
      3094      3096      3098      3094      3096      3146      3095      3094      3096
      3096      3146      3147      3096      3146      3148      3096      3146      3149
      3097      3096      3098      3097      3096      3146      3098      3096      3146
      3099      3102      3103      3099      3102      3104      3099      3102      3105
      3100      3099      3101      3100      3099      3102      3101      3099      3102
      3102      3105      3106      3102      3105      3107      3102      3105      3108
      3103      3102      3104      3103      3102      3105      3104      3102      3105
      3105      3108      3109      3105      3108      3110      3105      3108      3111
      3106      3105      3107      3106      3105      3108      3107      3105      3108
      3108      3111      3112      3108      3111      3113      3108      3111      3114
      3109      3108      3110      3109      3108      3111      3110      3108      3111
      3111      3114      3115      3111      3114      3116      3111      3114      3117
      3112      3111      3113      3112      3111      3114      3113      3111      3114
      3114      3117      3118      3114      3117      3119      3115      3114      3116
      3115      3114      3117      3116      3114      3117      3117      3119      3120
      3117      3119      3121      3118      3117      3119      3119      3121      3122
      3119      3121      3123      3119      3121      3124      3120      3119      3121
      3121      3124      3125      3121      3124      3126      3121      3124      3127
      3122      3121      3123      3122      3121      3124      3123      3121      3124
      3124      3127      3128      3124      3127      3129      3124      3127      3130
      3125      3124      3126      3125      3124      3127      3126      3124      3127
      3127      3130      3131      3127      3130      3132      3127      3130      3133
      3128      3127      3129      3128      3127      3130      3129      3127      3130
      3130      3133      3134      3130      3133      3135      3130      3133      3136
      3131      3130      3132      3131      3130      3133      3132      3130      3133
      3133      3136      3137      3133      3136      3138      3133      3136      3139
      3134      3133      3135      3134      3133      3136      3135      3133      3136
      3136      3139      3140      3136      3139      3141      3136      3139      3142
      3137      3136      3138      3137      3136      3139      3138      3136      3139
      3139      3142      3143      3139      3142      3144      3139      3142      3145
      3140      3139      3141      3140      3139      3142      3141      3139      3142
      3143      3142      3144      3143      3142      3145      3144      3142      3145
      3146      3149      3150      3146      3149      3151      3146      3149      3152
      3147      3146      3148      3147      3146      3149      3148      3146      3149
      3149      3152      3153      3149      3152      3154      3149      3152      3155
      3150      3149      3151      3150      3149      3152      3151      3149      3152
      3152      3155      3156      3152      3155      3157      3152      3155      3158
      3153      3152      3154      3153      3152      3155      3154      3152      3155
      3155      3158      3159      3155      3158      3160      3155      3158      3161
      3156      3155      3157      3156      3155      3158      3157      3155      3158
      3158      3161      3162      3158      3161      3163      3158      3161      3164
      3159      3158      3160      3159      3158      3161      3160      3158      3161
      3161      3164      3165      3161      3164      3166      3161      3164      3167
      3162      3161      3163      3162      3161      3164      3163      3161      3164
      3164      3167      3168      3164      3167      3169      3164      3167      3170
      3165      3164      3166      3165      3164      3167      3166      3164      3167
      3167      3170      3171      3167      3170      3172      3167      3170      3173
      3168      3167      3169      3168      3167      3170      3169      3167      3170
      3170      3173      3174      3170      3173      3175      3170      3173      3176
      3171      3170      3172      3171      3170      3173      3172      3170      3173
      3173      3176      3177      3173      3176      3178      3173      3176      3179
      3174      3173      3175      3174      3173      3176      3175      3173      3176
      3176      3179      3180      3176      3179      3181      3176      3179      3182
      3177      3176      3178      3177      3176      3179      3178      3176      3179
      3179      3182      3183      3179      3182      3184      3179      3182      3185
      3180      3179      3181      3180      3179      3182      3181      3179      3182
      3182      3185      3186      3182      3185      3187      3182      3185      3188
      3183      3182      3184      3183      3182      3185      3184      3182      3185
      3186      3185      3187      3186      3185      3188      3187      3185      3188
      3189      3193      3194      3189      3193      3195      3189      3193      3198
      3190      3189      3191      3190      3189      3192      3190      3189      3193
      3191      3189      3192      3191      3189      3193      3192      3189      3193
      3193      3195      3196      3193      3195      3197      3193      3198      3199
      3193      3198      3200      3193      3198      3204      3194      3193      3195
      3194      3193      3198      3195      3193      3198      3196      3195      3197
      3198      3204      3201      3199      3198      3200      3199      3198      3204
      3200      3198      3204      3201      3205      3206      3202      3201      3203
      3202      3201      3204      3202      3201      3205      3203      3201      3204
      3203      3201      3205      3204      3201      3205      3205      3206      3207
      3205      3206      3208      3205      3206      3209      3206      3209      3210
      3206      3209      3211      3206      3209      3217      3207      3206      3208
      3207      3206      3209      3208      3206      3209      3209      3211      3212
      3209      3217      3218      3209      3217      3219      3209      3217      3220
      3210      3209      3211      3210      3209      3217      3211      3209      3217
      3211      3212      3213      3211      3212      3214      3212      3214      3215
      3212      3214      3216      3212      3214      3226      3213      3212      3214
      3214      3226      3227      3214      3226      3228      3214      3226      3229
      3215      3214      3216      3215      3214      3226      3216      3214      3226
      3217      3220      3221      3218      3217      3219      3218      3217      3220
      3219      3217      3220      3220      3221      3222      3220      3221      3223
      3221      3223      3224      3221      3223      3225      3221      3223      3273
      3222      3221      3223      3223      3273      3274      3223      3273      3275
      3223      3273      3276      3224      3223      3225      3224      3223      3273
      3225      3223      3273      3226      3229      3230      3226      3229      3231
      3226      3229      3232      3227      3226      3228      3227      3226      3229
      3228      3226      3229      3229      3232      3233      3229      3232      3234
      3229      3232      3235      3230      3229      3231      3230      3229      3232
      3231      3229      3232      3232      3235      3236      3232      3235      3237
      3232      3235      3238      3233      3232      3234      3233      3232      3235
      3234      3232      3235      3235      3238      3239      3235      3238      3240
      3235      3238      3241      3236      3235      3237      3236      3235      3238
      3237      3235      3238      3238      3241      3242      3238      3241      3243
      3238      3241      3244      3239      3238      3240      3239      3238      3241
      3240      3238      3241      3241      3244      3245      3241      3244      3246
      3242      3241      3243      3242      3241      3244      3243      3241      3244
      3244      3246      3247      3244      3246      3248      3245      3244      3246
      3246      3248      3249      3246      3248      3250      3246      3248      3251
      3247      3246      3248      3248      3251      3252      3248      3251      3253
      3248      3251      3254      3249      3248      3250      3249      3248      3251
      3250      3248      3251      3251      3254      3255      3251      3254      3256
      3251      3254      3257      3252      3251      3253      3252      3251      3254
      3253      3251      3254      3254      3257      3258      3254      3257      3259
      3254      3257      3260      3255      3254      3256      3255      3254      3257
      3256      3254      3257      3257      3260      3261      3257      3260      3262
      3257      3260      3263      3258      3257      3259      3258      3257      3260
      3259      3257      3260      3260      3263      3264      3260      3263      3265
      3260      3263      3266      3261      3260      3262      3261      3260      3263
      3262      3260      3263      3263      3266      3267      3263      3266      3268
      3263      3266      3269      3264      3263      3265      3264      3263      3266
      3265      3263      3266      3266      3269      3270      3266      3269      3271
      3266      3269      3272      3267      3266      3268      3267      3266      3269
      3268      3266      3269      3270      3269      3271      3270      3269      3272
      3271      3269      3272      3273      3276      3277      3273      3276      3278
      3273      3276      3279      3274      3273      3275      3274      3273      3276
      3275      3273      3276      3276      3279      3280      3276      3279      3281
      3276      3279      3282      3277      3276      3278      3277      3276      3279
      3278      3276      3279      3279      3282      3283      3279      3282      3284
      3279      3282      3285      3280      3279      3281      3280      3279      3282
      3281      3279      3282      3282      3285      3286      3282      3285      3287
      3282      3285      3288      3283      3282      3284      3283      3282      3285
      3284      3282      3285      3285      3288      3289      3285      3288      3290
      3285      3288      3291      3286      3285      3287      3286      3285      3288
      3287      3285      3288      3288      3291      3292      3288      3291      3293
      3288      3291      3294      3289      3288      3290      3289      3288      3291
      3290      3288      3291      3291      3294      3295      3291      3294      3296
      3291      3294      3297      3292      3291      3293      3292      3291      3294
      3293      3291      3294      3294      3297      3298      3294      3297      3299
      3294      3297      3300      3295      3294      3296      3295      3294      3297
      3296      3294      3297      3297      3300      3301      3297      3300      3302
      3297      3300      3303      3298      3297      3299      3298      3297      3300
      3299      3297      3300      3300      3303      3304      3300      3303      3305
      3300      3303      3306      3301      3300      3302      3301      3300      3303
      3302      3300      3303      3303      3306      3307      3303      3306      3308
      3303      3306      3309      3304      3303      3305      3304      3303      3306
      3305      3303      3306      3306      3309      3310      3306      3309      3311
      3306      3309      3312      3307      3306      3308      3307      3306      3309
      3308      3306      3309      3309      3312      3313      3309      3312      3314
      3309      3312      3315      3310      3309      3311      3310      3309      3312
      3311      3309      3312      3313      3312      3314      3313      3312      3315
      3314      3312      3315      3316      3317      3318      3316      3317      3319
      3316      3317      3332      3316      3320      3321      3316      3320      3322
      3316      3320      3323      3316      3324      3325      3316      3324      3326
      3316      3324      3327      3316      3328      3329      3316      3328      3330
      3316      3328      3331      3317      3316      3320      3317      3316      3324
      3317      3316      3328      3317      3332      3333      3317      3332      3334
      3317      3332      3338      3318      3317      3319      3318      3317      3332
      3319      3317      3332      3320      3316      3324      3320      3316      3328
      3321      3320      3322      3321      3320      3323      3322      3320      3323
      3324      3316      3328      3325      3324      3326      3325      3324      3327
      3326      3324      3327      3329      3328      3330      3329      3328      3331
      3330      3328      3331      3332      3338      3335      3333      3332      3334
      3333      3332      3338      3334      3332      3338      3335      3339      3340
      3336      3335      3337      3336      3335      3338      3336      3335      3339
      3337      3335      3338      3337      3335      3339      3338      3335      3339
      3339      3340      3341      3339      3340      3342      3339      3340      3343
      3340      3343      3344      3340      3343      3345      3340      3343      3351
      3341      3340      3342      3341      3340      3343      3342      3340      3343
      3343      3345      3346      3343      3351      3352      3343      3351      3353
      3343      3351      3354      3344      3343      3345      3344      3343      3351
      3345      3343      3351      3345      3346      3347      3345      3346      3348
      3346      3348      3349      3346      3348      3350      3346      3348      3360
      3347      3346      3348      3348      3360      3361      3348      3360      3362
      3348      3360      3363      3349      3348      3350      3349      3348      3360
      3350      3348      3360      3351      3354      3355      3352      3351      3353
      3352      3351      3354      3353      3351      3354      3354      3355      3356
      3354      3355      3357      3355      3357      3358      3355      3357      3359
      3355      3357      3407      3356      3355      3357      3357      3407      3408
      3357      3407      3409      3357      3407      3410      3358      3357      3359
      3358      3357      3407      3359      3357      3407      3360      3363      3364
      3360      3363      3365      3360      3363      3366      3361      3360      3362
      3361      3360      3363      3362      3360      3363      3363      3366      3367
      3363      3366      3368      3363      3366      3369      3364      3363      3365
      3364      3363      3366      3365      3363      3366      3366      3369      3370
      3366      3369      3371      3366      3369      3372      3367      3366      3368
      3367      3366      3369      3368      3366      3369      3369      3372      3373
      3369      3372      3374      3369      3372      3375      3370      3369      3371
      3370      3369      3372      3371      3369      3372      3372      3375      3376
      3372      3375      3377      3372      3375      3378      3373      3372      3374
      3373      3372      3375      3374      3372      3375      3375      3378      3379
      3375      3378      3380      3376      3375      3377      3376      3375      3378
      3377      3375      3378      3378      3380      3381      3378      3380      3382
      3379      3378      3380      3380      3382      3383      3380      3382      3384
      3380      3382      3385      3381      3380      3382      3382      3385      3386
      3382      3385      3387      3382      3385      3388      3383      3382      3384
      3383      3382      3385      3384      3382      3385      3385      3388      3389
      3385      3388      3390      3385      3388      3391      3386      3385      3387
      3386      3385      3388      3387      3385      3388      3388      3391      3392
      3388      3391      3393      3388      3391      3394      3389      3388      3390
      3389      3388      3391      3390      3388      3391      3391      3394      3395
      3391      3394      3396      3391      3394      3397      3392      3391      3393
      3392      3391      3394      3393      3391      3394      3394      3397      3398
      3394      3397      3399      3394      3397      3400      3395      3394      3396
      3395      3394      3397      3396      3394      3397      3397      3400      3401
      3397      3400      3402      3397      3400      3403      3398      3397      3399
      3398      3397      3400      3399      3397      3400      3400      3403      3404
      3400      3403      3405      3400      3403      3406      3401      3400      3402
      3401      3400      3403      3402      3400      3403      3404      3403      3405
      3404      3403      3406      3405      3403      3406      3407      3410      3411
      3407      3410      3412      3407      3410      3413      3408      3407      3409
      3408      3407      3410      3409      3407      3410      3410      3413      3414
      3410      3413      3415      3410      3413      3416      3411      3410      3412
      3411      3410      3413      3412      3410      3413      3413      3416      3417
      3413      3416      3418      3413      3416      3419      3414      3413      3415
      3414      3413      3416      3415      3413      3416      3416      3419      3420
      3416      3419      3421      3416      3419      3422      3417      3416      3418
      3417      3416      3419      3418      3416      3419      3419      3422      3423
      3419      3422      3424      3419      3422      3425      3420      3419      3421
      3420      3419      3422      3421      3419      3422      3422      3425      3426
      3422      3425      3427      3422      3425      3428      3423      3422      3424
      3423      3422      3425      3424      3422      3425      3425      3428      3429
      3425      3428      3430      3425      3428      3431      3426      3425      3427
      3426      3425      3428      3427      3425      3428      3428      3431      3432
      3428      3431      3433      3428      3431      3434      3429      3428      3430
      3429      3428      3431      3430      3428      3431      3431      3434      3435
      3431      3434      3436      3431      3434      3437      3432      3431      3433
      3432      3431      3434      3433      3431      3434      3434      3437      3438
      3434      3437      3439      3434      3437      3440      3435      3434      3436
      3435      3434      3437      3436      3434      3437      3437      3440      3441
      3437      3440      3442      3437      3440      3443      3438      3437      3439
      3438      3437      3440      3439      3437      3440      3440      3443      3444
      3440      3443      3445      3440      3443      3446      3441      3440      3442
      3441      3440      3443      3442      3440      3443      3443      3446      3447
      3443      3446      3448      3443      3446      3449      3444      3443      3445
      3444      3443      3446      3445      3443      3446      3447      3446      3448
      3447      3446      3449      3448      3446      3449      3450      3451      3452
      3450      3451      3453      3450      3451      3466      3450      3454      3455
      3450      3454      3456      3450      3454      3457      3450      3458      3459
      3450      3458      3460      3450      3458      3461      3450      3462      3463
      3450      3462      3464      3450      3462      3465      3451      3450      3454
      3451      3450      3458      3451      3450      3462      3451      3466      3467
      3451      3466      3468      3451      3466      3472      3452      3451      3453
      3452      3451      3466      3453      3451      3466      3454      3450      3458
      3454      3450      3462      3455      3454      3456      3455      3454      3457
      3456      3454      3457      3458      3450      3462      3459      3458      3460
      3459      3458      3461      3460      3458      3461      3463      3462      3464
      3463      3462      3465      3464      3462      3465      3466      3472      3469
      3467      3466      3468      3467      3466      3472      3468      3466      3472
      3469      3473      3474      3470      3469      3471      3470      3469      3472
      3470      3469      3473      3471      3469      3472      3471      3469      3473
      3472      3469      3473      3473      3474      3475      3473      3474      3476
      3473      3474      3477      3474      3477      3478      3474      3477      3479
      3474      3477      3485      3475      3474      3476      3475      3474      3477
      3476      3474      3477      3477      3479      3480      3477      3485      3486
      3477      3485      3487      3477      3485      3488      3478      3477      3479
      3478      3477      3485      3479      3477      3485      3479      3480      3481
      3479      3480      3482      3480      3482      3483      3480      3482      3484
      3480      3482      3494      3481      3480      3482      3482      3494      3495
      3482      3494      3496      3482      3494      3497      3483      3482      3484
      3483      3482      3494      3484      3482      3494      3485      3488      3489
      3486      3485      3487      3486      3485      3488      3487      3485      3488
      3488      3489      3490      3488      3489      3491      3489      3491      3492
      3489      3491      3493      3489      3491      3541      3490      3489      3491
      3491      3541      3542      3491      3541      3543      3491      3541      3544
      3492      3491      3493      3492      3491      3541      3493      3491      3541
      3494      3497      3498      3494      3497      3499      3494      3497      3500
      3495      3494      3496      3495      3494      3497      3496      3494      3497
      3497      3500      3501      3497      3500      3502      3497      3500      3503
      3498      3497      3499      3498      3497      3500      3499      3497      3500
      3500      3503      3504      3500      3503      3505      3500      3503      3506
      3501      3500      3502      3501      3500      3503      3502      3500      3503
      3503      3506      3507      3503      3506      3508      3503      3506      3509
      3504      3503      3505      3504      3503      3506      3505      3503      3506
      3506      3509      3510      3506      3509      3511      3506      3509      3512
      3507      3506      3508      3507      3506      3509      3508      3506      3509
      3509      3512      3513      3509      3512      3514      3510      3509      3511
      3510      3509      3512      3511      3509      3512      3512      3514      3515
      3512      3514      3516      3513      3512      3514      3514      3516      3517
      3514      3516      3518      3514      3516      3519      3515      3514      3516
      3516      3519      3520      3516      3519      3521      3516      3519      3522
      3517      3516      3518      3517      3516      3519      3518      3516      3519
      3519      3522      3523      3519      3522      3524      3519      3522      3525
      3520      3519      3521      3520      3519      3522      3521      3519      3522
      3522      3525      3526      3522      3525      3527      3522      3525      3528
      3523      3522      3524      3523      3522      3525      3524      3522      3525
      3525      3528      3529      3525      3528      3530      3525      3528      3531
      3526      3525      3527      3526      3525      3528      3527      3525      3528
      3528      3531      3532      3528      3531      3533      3528      3531      3534
      3529      3528      3530      3529      3528      3531      3530      3528      3531
      3531      3534      3535      3531      3534      3536      3531      3534      3537
      3532      3531      3533      3532      3531      3534      3533      3531      3534
      3534      3537      3538      3534      3537      3539      3534      3537      3540
      3535      3534      3536      3535      3534      3537      3536      3534      3537
      3538      3537      3539      3538      3537      3540      3539      3537      3540
      3541      3544      3545      3541      3544      3546      3541      3544      3547
      3542      3541      3543      3542      3541      3544      3543      3541      3544
      3544      3547      3548      3544      3547      3549      3544      3547      3550
      3545      3544      3546      3545      3544      3547      3546      3544      3547
      3547      3550      3551      3547      3550      3552      3547      3550      3553
      3548      3547      3549      3548      3547      3550      3549      3547      3550
      3550      3553      3554      3550      3553      3555      3550      3553      3556
      3551      3550      3552      3551      3550      3553      3552      3550      3553
      3553      3556      3557      3553      3556      3558      3553      3556      3559
      3554      3553      3555      3554      3553      3556      3555      3553      3556
      3556      3559      3560      3556      3559      3561      3556      3559      3562
      3557      3556      3558      3557      3556      3559      3558      3556      3559
      3559      3562      3563      3559      3562      3564      3559      3562      3565
      3560      3559      3561      3560      3559      3562      3561      3559      3562
      3562      3565      3566      3562      3565      3567      3562      3565      3568
      3563      3562      3564      3563      3562      3565      3564      3562      3565
      3565      3568      3569      3565      3568      3570      3565      3568      3571
      3566      3565      3567      3566      3565      3568      3567      3565      3568
      3568      3571      3572      3568      3571      3573      3568      3571      3574
      3569      3568      3570      3569      3568      3571      3570      3568      3571
      3571      3574      3575      3571      3574      3576      3571      3574      3577
      3572      3571      3573      3572      3571      3574      3573      3571      3574
      3574      3577      3578      3574      3577      3579      3574      3577      3580
      3575      3574      3576      3575      3574      3577      3576      3574      3577
      3577      3580      3581      3577      3580      3582      3577      3580      3583
      3578      3577      3579      3578      3577      3580      3579      3577      3580
      3581      3580      3582      3581      3580      3583      3582      3580      3583
      3584      3585      3586      3584      3585      3587      3584      3585      3600
      3584      3588      3589      3584      3588      3590      3584      3588      3591
      3584      3592      3593      3584      3592      3594      3584      3592      3595
      3584      3596      3597      3584      3596      3598      3584      3596      3599
      3585      3584      3588      3585      3584      3592      3585      3584      3596
      3585      3600      3601      3585      3600      3602      3585      3600      3606
      3586      3585      3587      3586      3585      3600      3587      3585      3600
      3588      3584      3592      3588      3584      3596      3589      3588      3590
      3589      3588      3591      3590      3588      3591      3592      3584      3596
      3593      3592      3594      3593      3592      3595      3594      3592      3595
      3597      3596      3598      3597      3596      3599      3598      3596      3599
      3600      3606      3603      3601      3600      3602      3601      3600      3606
      3602      3600      3606      3603      3607      3608      3604      3603      3605
      3604      3603      3606      3604      3603      3607      3605      3603      3606
      3605      3603      3607      3606      3603      3607      3607      3608      3609
      3607      3608      3610      3607      3608      3611      3608      3611      3612
      3608      3611      3613      3608      3611      3619      3609      3608      3610
      3609      3608      3611      3610      3608      3611      3611      3613      3614
      3611      3619      3620      3611      3619      3621      3611      3619      3622
      3612      3611      3613      3612      3611      3619      3613      3611      3619
      3613      3614      3615      3613      3614      3616      3614      3616      3617
      3614      3616      3618      3614      3616      3628      3615      3614      3616
      3616      3628      3629      3616      3628      3630      3616      3628      3631
      3617      3616      3618      3617      3616      3628      3618      3616      3628
      3619      3622      3623      3620      3619      3621      3620      3619      3622
      3621      3619      3622      3622      3623      3624      3622      3623      3625
      3623      3625      3626      3623      3625      3627      3623      3625      3675
      3624      3623      3625      3625      3675      3676      3625      3675      3677
      3625      3675      3678      3626      3625      3627      3626      3625      3675
      3627      3625      3675      3628      3631      3632      3628      3631      3633
      3628      3631      3634      3629      3628      3630      3629      3628      3631
      3630      3628      3631      3631      3634      3635      3631      3634      3636
      3631      3634      3637      3632      3631      3633      3632      3631      3634
      3633      3631      3634      3634      3637      3638      3634      3637      3639
      3634      3637      3640      3635      3634      3636      3635      3634      3637
      3636      3634      3637      3637      3640      3641      3637      3640      3642
      3637      3640      3643      3638      3637      3639      3638      3637      3640
      3639      3637      3640      3640      3643      3644      3640      3643      3645
      3640      3643      3646      3641      3640      3642      3641      3640      3643
      3642      3640      3643      3643      3646      3647      3643      3646      3648
      3644      3643      3645      3644      3643      3646      3645      3643      3646
      3646      3648      3649      3646      3648      3650      3647      3646      3648
      3648      3650      3651      3648      3650      3652      3648      3650      3653
      3649      3648      3650      3650      3653      3654      3650      3653      3655
      3650      3653      3656      3651      3650      3652      3651      3650      3653
      3652      3650      3653      3653      3656      3657      3653      3656      3658
      3653      3656      3659      3654      3653      3655      3654      3653      3656
      3655      3653      3656      3656      3659      3660      3656      3659      3661
      3656      3659      3662      3657      3656      3658      3657      3656      3659
      3658      3656      3659      3659      3662      3663      3659      3662      3664
      3659      3662      3665      3660      3659      3661      3660      3659      3662
      3661      3659      3662      3662      3665      3666      3662      3665      3667
      3662      3665      3668      3663      3662      3664      3663      3662      3665
      3664      3662      3665      3665      3668      3669      3665      3668      3670
      3665      3668      3671      3666      3665      3667      3666      3665      3668
      3667      3665      3668      3668      3671      3672      3668      3671      3673
      3668      3671      3674      3669      3668      3670      3669      3668      3671
      3670      3668      3671      3672      3671      3673      3672      3671      3674
      3673      3671      3674      3675      3678      3679      3675      3678      3680
      3675      3678      3681      3676      3675      3677      3676      3675      3678
      3677      3675      3678      3678      3681      3682      3678      3681      3683
      3678      3681      3684      3679      3678      3680      3679      3678      3681
      3680      3678      3681      3681      3684      3685      3681      3684      3686
      3681      3684      3687      3682      3681      3683      3682      3681      3684
      3683      3681      3684      3684      3687      3688      3684      3687      3689
      3684      3687      3690      3685      3684      3686      3685      3684      3687
      3686      3684      3687      3687      3690      3691      3687      3690      3692
      3687      3690      3693      3688      3687      3689      3688      3687      3690
      3689      3687      3690      3690      3693      3694      3690      3693      3695
      3690      3693      3696      3691      3690      3692      3691      3690      3693
      3692      3690      3693      3693      3696      3697      3693      3696      3698
      3693      3696      3699      3694      3693      3695      3694      3693      3696
      3695      3693      3696      3696      3699      3700      3696      3699      3701
      3696      3699      3702      3697      3696      3698      3697      3696      3699
      3698      3696      3699      3699      3702      3703      3699      3702      3704
      3699      3702      3705      3700      3699      3701      3700      3699      3702
      3701      3699      3702      3702      3705      3706      3702      3705      3707
      3702      3705      3708      3703      3702      3704      3703      3702      3705
      3704      3702      3705      3705      3708      3709      3705      3708      3710
      3705      3708      3711      3706      3705      3707      3706      3705      3708
      3707      3705      3708      3708      3711      3712      3708      3711      3713
      3708      3711      3714      3709      3708      3710      3709      3708      3711
      3710      3708      3711      3711      3714      3715      3711      3714      3716
      3711      3714      3717      3712      3711      3713      3712      3711      3714
      3713      3711      3714      3715      3714      3716      3715      3714      3717
      3716      3714      3717      3718      3719      3720      3718      3719      3721
      3718      3719      3734      3718      3722      3723      3718      3722      3724
      3718      3722      3725      3718      3726      3727      3718      3726      3728
      3718      3726      3729      3718      3730      3731      3718      3730      3732
      3718      3730      3733      3719      3718      3722      3719      3718      3726
      3719      3718      3730      3719      3734      3735      3719      3734      3736
      3719      3734      3740      3720      3719      3721      3720      3719      3734
      3721      3719      3734      3722      3718      3726      3722      3718      3730
      3723      3722      3724      3723      3722      3725      3724      3722      3725
      3726      3718      3730      3727      3726      3728      3727      3726      3729
      3728      3726      3729      3731      3730      3732      3731      3730      3733
      3732      3730      3733      3734      3740      3737      3735      3734      3736
      3735      3734      3740      3736      3734      3740      3737      3741      3742
      3738      3737      3739      3738      3737      3740      3738      3737      3741
      3739      3737      3740      3739      3737      3741      3740      3737      3741
      3741      3742      3743      3741      3742      3744      3741      3742      3745
      3742      3745      3746      3742      3745      3747      3742      3745      3753
      3743      3742      3744      3743      3742      3745      3744      3742      3745
      3745      3747      3748      3745      3753      3754      3745      3753      3755
      3745      3753      3756      3746      3745      3747      3746      3745      3753
      3747      3745      3753      3747      3748      3749      3747      3748      3750
      3748      3750      3751      3748      3750      3752      3748      3750      3762
      3749      3748      3750      3750      3762      3763      3750      3762      3764
      3750      3762      3765      3751      3750      3752      3751      3750      3762
      3752      3750      3762      3753      3756      3757      3754      3753      3755
      3754      3753      3756      3755      3753      3756      3756      3757      3758
      3756      3757      3759      3757      3759      3760      3757      3759      3761
      3757      3759      3809      3758      3757      3759      3759      3809      3810
      3759      3809      3811      3759      3809      3812      3760      3759      3761
      3760      3759      3809      3761      3759      3809      3762      3765      3766
      3762      3765      3767      3762      3765      3768      3763      3762      3764
      3763      3762      3765      3764      3762      3765      3765      3768      3769
      3765      3768      3770      3765      3768      3771      3766      3765      3767
      3766      3765      3768      3767      3765      3768      3768      3771      3772
      3768      3771      3773      3768      3771      3774      3769      3768      3770
      3769      3768      3771      3770      3768      3771      3771      3774      3775
      3771      3774      3776      3771      3774      3777      3772      3771      3773
      3772      3771      3774      3773      3771      3774      3774      3777      3778
      3774      3777      3779      3774      3777      3780      3775      3774      3776
      3775      3774      3777      3776      3774      3777      3777      3780      3781
      3777      3780      3782      3778      3777      3779      3778      3777      3780
      3779      3777      3780      3780      3782      3783      3780      3782      3784
      3781      3780      3782      3782      3784      3785      3782      3784      3786
      3782      3784      3787      3783      3782      3784      3784      3787      3788
      3784      3787      3789      3784      3787      3790      3785      3784      3786
      3785      3784      3787      3786      3784      3787      3787      3790      3791
      3787      3790      3792      3787      3790      3793      3788      3787      3789
      3788      3787      3790      3789      3787      3790      3790      3793      3794
      3790      3793      3795      3790      3793      3796      3791      3790      3792
      3791      3790      3793      3792      3790      3793      3793      3796      3797
      3793      3796      3798      3793      3796      3799      3794      3793      3795
      3794      3793      3796      3795      3793      3796      3796      3799      3800
      3796      3799      3801      3796      3799      3802      3797      3796      3798
      3797      3796      3799      3798      3796      3799      3799      3802      3803
      3799      3802      3804      3799      3802      3805      3800      3799      3801
      3800      3799      3802      3801      3799      3802      3802      3805      3806
      3802      3805      3807      3802      3805      3808      3803      3802      3804
      3803      3802      3805      3804      3802      3805      3806      3805      3807
      3806      3805      3808      3807      3805      3808      3809      3812      3813
      3809      3812      3814      3809      3812      3815      3810      3809      3811
      3810      3809      3812      3811      3809      3812      3812      3815      3816
      3812      3815      3817      3812      3815      3818      3813      3812      3814
      3813      3812      3815      3814      3812      3815      3815      3818      3819
      3815      3818      3820      3815      3818      3821      3816      3815      3817
      3816      3815      3818      3817      3815      3818      3818      3821      3822
      3818      3821      3823      3818      3821      3824      3819      3818      3820
      3819      3818      3821      3820      3818      3821      3821      3824      3825
      3821      3824      3826      3821      3824      3827      3822      3821      3823
      3822      3821      3824      3823      3821      3824      3824      3827      3828
      3824      3827      3829      3824      3827      3830      3825      3824      3826
      3825      3824      3827      3826      3824      3827      3827      3830      3831
      3827      3830      3832      3827      3830      3833      3828      3827      3829
      3828      3827      3830      3829      3827      3830      3830      3833      3834
      3830      3833      3835      3830      3833      3836      3831      3830      3832
      3831      3830      3833      3832      3830      3833      3833      3836      3837
      3833      3836      3838      3833      3836      3839      3834      3833      3835
      3834      3833      3836      3835      3833      3836      3836      3839      3840
      3836      3839      3841      3836      3839      3842      3837      3836      3838
      3837      3836      3839      3838      3836      3839      3839      3842      3843
      3839      3842      3844      3839      3842      3845      3840      3839      3841
      3840      3839      3842      3841      3839      3842      3842      3845      3846
      3842      3845      3847      3842      3845      3848      3843      3842      3844
      3843      3842      3845      3844      3842      3845      3845      3848      3849
      3845      3848      3850      3845      3848      3851      3846      3845      3847
      3846      3845      3848      3847      3845      3848      3849      3848      3850
      3849      3848      3851      3850      3848      3851      3852      3853      3854
      3852      3853      3855      3852      3853      3868      3852      3856      3857
      3852      3856      3858      3852      3856      3859      3852      3860      3861
      3852      3860      3862      3852      3860      3863      3852      3864      3865
      3852      3864      3866      3852      3864      3867      3853      3852      3856
      3853      3852      3860      3853      3852      3864      3853      3868      3869
      3853      3868      3870      3853      3868      3874      3854      3853      3855
      3854      3853      3868      3855      3853      3868      3856      3852      3860
      3856      3852      3864      3857      3856      3858      3857      3856      3859
      3858      3856      3859      3860      3852      3864      3861      3860      3862
      3861      3860      3863      3862      3860      3863      3865      3864      3866
      3865      3864      3867      3866      3864      3867      3868      3874      3871
      3869      3868      3870      3869      3868      3874      3870      3868      3874
      3871      3875      3876      3872      3871      3873      3872      3871      3874
      3872      3871      3875      3873      3871      3874      3873      3871      3875
      3874      3871      3875      3875      3876      3877      3875      3876      3878
      3875      3876      3879      3876      3879      3880      3876      3879      3881
      3876      3879      3887      3877      3876      3878      3877      3876      3879
      3878      3876      3879      3879      3881      3882      3879      3887      3888
      3879      3887      3889      3879      3887      3890      3880      3879      3881
      3880      3879      3887      3881      3879      3887      3881      3882      3883
      3881      3882      3884      3882      3884      3885      3882      3884      3886
      3882      3884      3896      3883      3882      3884      3884      3896      3897
      3884      3896      3898      3884      3896      3899      3885      3884      3886
      3885      3884      3896      3886      3884      3896      3887      3890      3891
      3888      3887      3889      3888      3887      3890      3889      3887      3890
      3890      3891      3892      3890      3891      3893      3891      3893      3894
      3891      3893      3895      3891      3893      3943      3892      3891      3893
      3893      3943      3944      3893      3943      3945      3893      3943      3946
      3894      3893      3895      3894      3893      3943      3895      3893      3943
      3896      3899      3900      3896      3899      3901      3896      3899      3902
      3897      3896      3898      3897      3896      3899      3898      3896      3899
      3899      3902      3903      3899      3902      3904      3899      3902      3905
      3900      3899      3901      3900      3899      3902      3901      3899      3902
      3902      3905      3906      3902      3905      3907      3902      3905      3908
      3903      3902      3904      3903      3902      3905      3904      3902      3905
      3905      3908      3909      3905      3908      3910      3905      3908      3911
      3906      3905      3907      3906      3905      3908      3907      3905      3908
      3908      3911      3912      3908      3911      3913      3908      3911      3914
      3909      3908      3910      3909      3908      3911      3910      3908      3911
      3911      3914      3915      3911      3914      3916      3912      3911      3913
      3912      3911      3914      3913      3911      3914      3914      3916      3917
      3914      3916      3918      3915      3914      3916      3916      3918      3919
      3916      3918      3920      3916      3918      3921      3917      3916      3918
      3918      3921      3922      3918      3921      3923      3918      3921      3924
      3919      3918      3920      3919      3918      3921      3920      3918      3921
      3921      3924      3925      3921      3924      3926      3921      3924      3927
      3922      3921      3923      3922      3921      3924      3923      3921      3924
      3924      3927      3928      3924      3927      3929      3924      3927      3930
      3925      3924      3926      3925      3924      3927      3926      3924      3927
      3927      3930      3931      3927      3930      3932      3927      3930      3933
      3928      3927      3929      3928      3927      3930      3929      3927      3930
      3930      3933      3934      3930      3933      3935      3930      3933      3936
      3931      3930      3932      3931      3930      3933      3932      3930      3933
      3933      3936      3937      3933      3936      3938      3933      3936      3939
      3934      3933      3935      3934      3933      3936      3935      3933      3936
      3936      3939      3940      3936      3939      3941      3936      3939      3942
      3937      3936      3938      3937      3936      3939      3938      3936      3939
      3940      3939      3941      3940      3939      3942      3941      3939      3942
      3943      3946      3947      3943      3946      3948      3943      3946      3949
      3944      3943      3945      3944      3943      3946      3945      3943      3946
      3946      3949      3950      3946      3949      3951      3946      3949      3952
      3947      3946      3948      3947      3946      3949      3948      3946      3949
      3949      3952      3953      3949      3952      3954      3949      3952      3955
      3950      3949      3951      3950      3949      3952      3951      3949      3952
      3952      3955      3956      3952      3955      3957      3952      3955      3958
      3953      3952      3954      3953      3952      3955      3954      3952      3955
      3955      3958      3959      3955      3958      3960      3955      3958      3961
      3956      3955      3957      3956      3955      3958      3957      3955      3958
      3958      3961      3962      3958      3961      3963      3958      3961      3964
      3959      3958      3960      3959      3958      3961      3960      3958      3961
      3961      3964      3965      3961      3964      3966      3961      3964      3967
      3962      3961      3963      3962      3961      3964      3963      3961      3964
      3964      3967      3968      3964      3967      3969      3964      3967      3970
      3965      3964      3966      3965      3964      3967      3966      3964      3967
      3967      3970      3971      3967      3970      3972      3967      3970      3973
      3968      3967      3969      3968      3967      3970      3969      3967      3970
      3970      3973      3974      3970      3973      3975      3970      3973      3976
      3971      3970      3972      3971      3970      3973      3972      3970      3973
      3973      3976      3977      3973      3976      3978      3973      3976      3979
      3974      3973      3975      3974      3973      3976      3975      3973      3976
      3976      3979      3980      3976      3979      3981      3976      3979      3982
      3977      3976      3978      3977      3976      3979      3978      3976      3979
      3979      3982      3983      3979      3982      3984      3979      3982      3985
      3980      3979      3981      3980      3979      3982      3981      3979      3982
      3983      3982      3984      3983      3982      3985      3984      3982      3985
      3986      3990      3991      3986      3990      3992      3986      3990      3995
      3987      3986      3988      3987      3986      3989      3987      3986      3990
      3988      3986      3989      3988      3986      3990      3989      3986      3990
      3990      3992      3993      3990      3992      3994      3990      3995      3996
      3990      3995      3997      3990      3995      4001      3991      3990      3992
      3991      3990      3995      3992      3990      3995      3993      3992      3994
      3995      4001      3998      3996      3995      3997      3996      3995      4001
      3997      3995      4001      3998      4002      4003      3999      3998      4000
      3999      3998      4001      3999      3998      4002      4000      3998      4001
      4000      3998      4002      4001      3998      4002      4002      4003      4004
      4002      4003      4005      4002      4003      4006      4003      4006      4007
      4003      4006      4008      4003      4006      4014      4004      4003      4005
      4004      4003      4006      4005      4003      4006      4006      4008      4009
      4006      4014      4015      4006      4014      4016      4006      4014      4017
      4007      4006      4008      4007      4006      4014      4008      4006      4014
      4008      4009      4010      4008      4009      4011      4009      4011      4012
      4009      4011      4013      4009      4011      4023      4010      4009      4011
      4011      4023      4024      4011      4023      4025      4011      4023      4026
      4012      4011      4013      4012      4011      4023      4013      4011      4023
      4014      4017      4018      4015      4014      4016      4015      4014      4017
      4016      4014      4017      4017      4018      4019      4017      4018      4020
      4018      4020      4021      4018      4020      4022      4018      4020      4070
      4019      4018      4020      4020      4070      4071      4020      4070      4072
      4020      4070      4073      4021      4020      4022      4021      4020      4070
      4022      4020      4070      4023      4026      4027      4023      4026      4028
      4023      4026      4029      4024      4023      4025      4024      4023      4026
      4025      4023      4026      4026      4029      4030      4026      4029      4031
      4026      4029      4032      4027      4026      4028      4027      4026      4029
      4028      4026      4029      4029      4032      4033      4029      4032      4034
      4029      4032      4035      4030      4029      4031      4030      4029      4032
      4031      4029      4032      4032      4035      4036      4032      4035      4037
      4032      4035      4038      4033      4032      4034      4033      4032      4035
      4034      4032      4035      4035      4038      4039      4035      4038      4040
      4035      4038      4041      4036      4035      4037      4036      4035      4038
      4037      4035      4038      4038      4041      4042      4038      4041      4043
      4039      4038      4040      4039      4038      4041      4040      4038      4041
      4041      4043      4044      4041      4043      4045      4042      4041      4043
      4043      4045      4046      4043      4045      4047      4043      4045      4048
      4044      4043      4045      4045      4048      4049      4045      4048      4050
      4045      4048      4051      4046      4045      4047      4046      4045      4048
      4047      4045      4048      4048      4051      4052      4048      4051      4053
      4048      4051      4054      4049      4048      4050      4049      4048      4051
      4050      4048      4051      4051      4054      4055      4051      4054      4056
      4051      4054      4057      4052      4051      4053      4052      4051      4054
      4053      4051      4054      4054      4057      4058      4054      4057      4059
      4054      4057      4060      4055      4054      4056      4055      4054      4057
      4056      4054      4057      4057      4060      4061      4057      4060      4062
      4057      4060      4063      4058      4057      4059      4058      4057      4060
      4059      4057      4060      4060      4063      4064      4060      4063      4065
      4060      4063      4066      4061      4060      4062      4061      4060      4063
      4062      4060      4063      4063      4066      4067      4063      4066      4068
      4063      4066      4069      4064      4063      4065      4064      4063      4066
      4065      4063      4066      4067      4066      4068      4067      4066      4069
      4068      4066      4069      4070      4073      4074      4070      4073      4075
      4070      4073      4076      4071      4070      4072      4071      4070      4073
      4072      4070      4073      4073      4076      4077      4073      4076      4078
      4073      4076      4079      4074      4073      4075      4074      4073      4076
      4075      4073      4076      4076      4079      4080      4076      4079      4081
      4076      4079      4082      4077      4076      4078      4077      4076      4079
      4078      4076      4079      4079      4082      4083      4079      4082      4084
      4079      4082      4085      4080      4079      4081      4080      4079      4082
      4081      4079      4082      4082      4085      4086      4082      4085      4087
      4082      4085      4088      4083      4082      4084      4083      4082      4085
      4084      4082      4085      4085      4088      4089      4085      4088      4090
      4085      4088      4091      4086      4085      4087      4086      4085      4088
      4087      4085      4088      4088      4091      4092      4088      4091      4093
      4088      4091      4094      4089      4088      4090      4089      4088      4091
      4090      4088      4091      4091      4094      4095      4091      4094      4096
      4091      4094      4097      4092      4091      4093      4092      4091      4094
      4093      4091      4094      4094      4097      4098      4094      4097      4099
      4094      4097      4100      4095      4094      4096      4095      4094      4097
      4096      4094      4097      4097      4100      4101      4097      4100      4102
      4097      4100      4103      4098      4097      4099      4098      4097      4100
      4099      4097      4100      4100      4103      4104      4100      4103      4105
      4100      4103      4106      4101      4100      4102      4101      4100      4103
      4102      4100      4103      4103      4106      4107      4103      4106      4108
      4103      4106      4109      4104      4103      4105      4104      4103      4106
      4105      4103      4106      4106      4109      4110      4106      4109      4111
      4106      4109      4112      4107      4106      4108      4107      4106      4109
      4108      4106      4109      4110      4109      4111      4110      4109      4112
      4111      4109      4112      4113      4114      4115      4113      4114      4116
      4113      4114      4129      4113      4117      4118      4113      4117      4119
      4113      4117      4120      4113      4121      4122      4113      4121      4123
      4113      4121      4124      4113      4125      4126      4113      4125      4127
      4113      4125      4128      4114      4113      4117      4114      4113      4121
      4114      4113      4125      4114      4129      4130      4114      4129      4131
      4114      4129      4135      4115      4114      4116      4115      4114      4129
      4116      4114      4129      4117      4113      4121      4117      4113      4125
      4118      4117      4119      4118      4117      4120      4119      4117      4120
      4121      4113      4125      4122      4121      4123      4122      4121      4124
      4123      4121      4124      4126      4125      4127      4126      4125      4128
      4127      4125      4128      4129      4135      4132      4130      4129      4131
      4130      4129      4135      4131      4129      4135      4132      4136      4137
      4133      4132      4134      4133      4132      4135      4133      4132      4136
      4134      4132      4135      4134      4132      4136      4135      4132      4136
      4136      4137      4138      4136      4137      4139      4136      4137      4140
      4137      4140      4141      4137      4140      4142      4137      4140      4148
      4138      4137      4139      4138      4137      4140      4139      4137      4140
      4140      4142      4143      4140      4148      4149      4140      4148      4150
      4140      4148      4151      4141      4140      4142      4141      4140      4148
      4142      4140      4148      4142      4143      4144      4142      4143      4145
      4143      4145      4146      4143      4145      4147      4143      4145      4157
      4144      4143      4145      4145      4157      4158      4145      4157      4159
      4145      4157      4160      4146      4145      4147      4146      4145      4157
      4147      4145      4157      4148      4151      4152      4149      4148      4150
      4149      4148      4151      4150      4148      4151      4151      4152      4153
      4151      4152      4154      4152      4154      4155      4152      4154      4156
      4152      4154      4204      4153      4152      4154      4154      4204      4205
      4154      4204      4206      4154      4204      4207      4155      4154      4156
      4155      4154      4204      4156      4154      4204      4157      4160      4161
      4157      4160      4162      4157      4160      4163      4158      4157      4159
      4158      4157      4160      4159      4157      4160      4160      4163      4164
      4160      4163      4165      4160      4163      4166      4161      4160      4162
      4161      4160      4163      4162      4160      4163      4163      4166      4167
      4163      4166      4168      4163      4166      4169      4164      4163      4165
      4164      4163      4166      4165      4163      4166      4166      4169      4170
      4166      4169      4171      4166      4169      4172      4167      4166      4168
      4167      4166      4169      4168      4166      4169      4169      4172      4173
      4169      4172      4174      4169      4172      4175      4170      4169      4171
      4170      4169      4172      4171      4169      4172      4172      4175      4176
      4172      4175      4177      4173      4172      4174      4173      4172      4175
      4174      4172      4175      4175      4177      4178      4175      4177      4179
      4176      4175      4177      4177      4179      4180      4177      4179      4181
      4177      4179      4182      4178      4177      4179      4179      4182      4183
      4179      4182      4184      4179      4182      4185      4180      4179      4181
      4180      4179      4182      4181      4179      4182      4182      4185      4186
      4182      4185      4187      4182      4185      4188      4183      4182      4184
      4183      4182      4185      4184      4182      4185      4185      4188      4189
      4185      4188      4190      4185      4188      4191      4186      4185      4187
      4186      4185      4188      4187      4185      4188      4188      4191      4192
      4188      4191      4193      4188      4191      4194      4189      4188      4190
      4189      4188      4191      4190      4188      4191      4191      4194      4195
      4191      4194      4196      4191      4194      4197      4192      4191      4193
      4192      4191      4194      4193      4191      4194      4194      4197      4198
      4194      4197      4199      4194      4197      4200      4195      4194      4196
      4195      4194      4197      4196      4194      4197      4197      4200      4201
      4197      4200      4202      4197      4200      4203      4198      4197      4199
      4198      4197      4200      4199      4197      4200      4201      4200      4202
      4201      4200      4203      4202      4200      4203      4204      4207      4208
      4204      4207      4209      4204      4207      4210      4205      4204      4206
      4205      4204      4207      4206      4204      4207      4207      4210      4211
      4207      4210      4212      4207      4210      4213      4208      4207      4209
      4208      4207      4210      4209      4207      4210      4210      4213      4214
      4210      4213      4215      4210      4213      4216      4211      4210      4212
      4211      4210      4213      4212      4210      4213      4213      4216      4217
      4213      4216      4218      4213      4216      4219      4214      4213      4215
      4214      4213      4216      4215      4213      4216      4216      4219      4220
      4216      4219      4221      4216      4219      4222      4217      4216      4218
      4217      4216      4219      4218      4216      4219      4219      4222      4223
      4219      4222      4224      4219      4222      4225      4220      4219      4221
      4220      4219      4222      4221      4219      4222      4222      4225      4226
      4222      4225      4227      4222      4225      4228      4223      4222      4224
      4223      4222      4225      4224      4222      4225      4225      4228      4229
      4225      4228      4230      4225      4228      4231      4226      4225      4227
      4226      4225      4228      4227      4225      4228      4228      4231      4232
      4228      4231      4233      4228      4231      4234      4229      4228      4230
      4229      4228      4231      4230      4228      4231      4231      4234      4235
      4231      4234      4236      4231      4234      4237      4232      4231      4233
      4232      4231      4234      4233      4231      4234      4234      4237      4238
      4234      4237      4239      4234      4237      4240      4235      4234      4236
      4235      4234      4237      4236      4234      4237      4237      4240      4241
      4237      4240      4242      4237      4240      4243      4238      4237      4239
      4238      4237      4240      4239      4237      4240      4240      4243      4244
      4240      4243      4245      4240      4243      4246      4241      4240      4242
      4241      4240      4243      4242      4240      4243      4244      4243      4245
      4244      4243      4246      4245      4243      4246      4247      4248      4249
      4247      4248      4250      4247      4248      4263      4247      4251      4252
      4247      4251      4253      4247      4251      4254      4247      4255      4256
      4247      4255      4257      4247      4255      4258      4247      4259      4260
      4247      4259      4261      4247      4259      4262      4248      4247      4251
      4248      4247      4255      4248      4247      4259      4248      4263      4264
      4248      4263      4265      4248      4263      4269      4249      4248      4250
      4249      4248      4263      4250      4248      4263      4251      4247      4255
      4251      4247      4259      4252      4251      4253      4252      4251      4254
      4253      4251      4254      4255      4247      4259      4256      4255      4257
      4256      4255      4258      4257      4255      4258      4260      4259      4261
      4260      4259      4262      4261      4259      4262      4263      4269      4266
      4264      4263      4265      4264      4263      4269      4265      4263      4269
      4266      4270      4271      4267      4266      4268      4267      4266      4269
      4267      4266      4270      4268      4266      4269      4268      4266      4270
      4269      4266      4270      4270      4271      4272      4270      4271      4273
      4270      4271      4274      4271      4274      4275      4271      4274      4276
      4271      4274      4282      4272      4271      4273      4272      4271      4274
      4273      4271      4274      4274      4276      4277      4274      4282      4283
      4274      4282      4284      4274      4282      4285      4275      4274      4276
      4275      4274      4282      4276      4274      4282      4276      4277      4278
      4276      4277      4279      4277      4279      4280      4277      4279      4281
      4277      4279      4291      4278      4277      4279      4279      4291      4292
      4279      4291      4293      4279      4291      4294      4280      4279      4281
      4280      4279      4291      4281      4279      4291      4282      4285      4286
      4283      4282      4284      4283      4282      4285      4284      4282      4285
      4285      4286      4287      4285      4286      4288      4286      4288      4289
      4286      4288      4290      4286      4288      4338      4287      4286      4288
      4288      4338      4339      4288      4338      4340      4288      4338      4341
      4289      4288      4290      4289      4288      4338      4290      4288      4338
      4291      4294      4295      4291      4294      4296      4291      4294      4297
      4292      4291      4293      4292      4291      4294      4293      4291      4294
      4294      4297      4298      4294      4297      4299      4294      4297      4300
      4295      4294      4296      4295      4294      4297      4296      4294      4297
      4297      4300      4301      4297      4300      4302      4297      4300      4303
      4298      4297      4299      4298      4297      4300      4299      4297      4300
      4300      4303      4304      4300      4303      4305      4300      4303      4306
      4301      4300      4302      4301      4300      4303      4302      4300      4303
      4303      4306      4307      4303      4306      4308      4303      4306      4309
      4304      4303      4305      4304      4303      4306      4305      4303      4306
      4306      4309      4310      4306      4309      4311      4307      4306      4308
      4307      4306      4309      4308      4306      4309      4309      4311      4312
      4309      4311      4313      4310      4309      4311      4311      4313      4314
      4311      4313      4315      4311      4313      4316      4312      4311      4313
      4313      4316      4317      4313      4316      4318      4313      4316      4319
      4314      4313      4315      4314      4313      4316      4315      4313      4316
      4316      4319      4320      4316      4319      4321      4316      4319      4322
      4317      4316      4318      4317      4316      4319      4318      4316      4319
      4319      4322      4323      4319      4322      4324      4319      4322      4325
      4320      4319      4321      4320      4319      4322      4321      4319      4322
      4322      4325      4326      4322      4325      4327      4322      4325      4328
      4323      4322      4324      4323      4322      4325      4324      4322      4325
      4325      4328      4329      4325      4328      4330      4325      4328      4331
      4326      4325      4327      4326      4325      4328      4327      4325      4328
      4328      4331      4332      4328      4331      4333      4328      4331      4334
      4329      4328      4330      4329      4328      4331      4330      4328      4331
      4331      4334      4335      4331      4334      4336      4331      4334      4337
      4332      4331      4333      4332      4331      4334      4333      4331      4334
      4335      4334      4336      4335      4334      4337      4336      4334      4337
      4338      4341      4342      4338      4341      4343      4338      4341      4344
      4339      4338      4340      4339      4338      4341      4340      4338      4341
      4341      4344      4345      4341      4344      4346      4341      4344      4347
      4342      4341      4343      4342      4341      4344      4343      4341      4344
      4344      4347      4348      4344      4347      4349      4344      4347      4350
      4345      4344      4346      4345      4344      4347      4346      4344      4347
      4347      4350      4351      4347      4350      4352      4347      4350      4353
      4348      4347      4349      4348      4347      4350      4349      4347      4350
      4350      4353      4354      4350      4353      4355      4350      4353      4356
      4351      4350      4352      4351      4350      4353      4352      4350      4353
      4353      4356      4357      4353      4356      4358      4353      4356      4359
      4354      4353      4355      4354      4353      4356      4355      4353      4356
      4356      4359      4360      4356      4359      4361      4356      4359      4362
      4357      4356      4358      4357      4356      4359      4358      4356      4359
      4359      4362      4363      4359      4362      4364      4359      4362      4365
      4360      4359      4361      4360      4359      4362      4361      4359      4362
      4362      4365      4366      4362      4365      4367      4362      4365      4368
      4363      4362      4364      4363      4362      4365      4364      4362      4365
      4365      4368      4369      4365      4368      4370      4365      4368      4371
      4366      4365      4367      4366      4365      4368      4367      4365      4368
      4368      4371      4372      4368      4371      4373      4368      4371      4374
      4369      4368      4370      4369      4368      4371      4370      4368      4371
      4371      4374      4375      4371      4374      4376      4371      4374      4377
      4372      4371      4373      4372      4371      4374      4373      4371      4374
      4374      4377      4378      4374      4377      4379      4374      4377      4380
      4375      4374      4376      4375      4374      4377      4376      4374      4377
      4378      4377      4379      4378      4377      4380      4379      4377      4380
      4381      4382      4383      4381      4382      4384      4381      4382      4397
      4381      4385      4386      4381      4385      4387      4381      4385      4388
      4381      4389      4390      4381      4389      4391      4381      4389      4392
      4381      4393      4394      4381      4393      4395      4381      4393      4396
      4382      4381      4385      4382      4381      4389      4382      4381      4393
      4382      4397      4398      4382      4397      4399      4382      4397      4403
      4383      4382      4384      4383      4382      4397      4384      4382      4397
      4385      4381      4389      4385      4381      4393      4386      4385      4387
      4386      4385      4388      4387      4385      4388      4389      4381      4393
      4390      4389      4391      4390      4389      4392      4391      4389      4392
      4394      4393      4395      4394      4393      4396      4395      4393      4396
      4397      4403      4400      4398      4397      4399      4398      4397      4403
      4399      4397      4403      4400      4404      4405      4401      4400      4402
      4401      4400      4403      4401      4400      4404      4402      4400      4403
      4402      4400      4404      4403      4400      4404      4404      4405      4406
      4404      4405      4407      4404      4405      4408      4405      4408      4409
      4405      4408      4410      4405      4408      4416      4406      4405      4407
      4406      4405      4408      4407      4405      4408      4408      4410      4411
      4408      4416      4417      4408      4416      4418      4408      4416      4419
      4409      4408      4410      4409      4408      4416      4410      4408      4416
      4410      4411      4412      4410      4411      4413      4411      4413      4414
      4411      4413      4415      4411      4413      4425      4412      4411      4413
      4413      4425      4426      4413      4425      4427      4413      4425      4428
      4414      4413      4415      4414      4413      4425      4415      4413      4425
      4416      4419      4420      4417      4416      4418      4417      4416      4419
      4418      4416      4419      4419      4420      4421      4419      4420      4422
      4420      4422      4423      4420      4422      4424      4420      4422      4472
      4421      4420      4422      4422      4472      4473      4422      4472      4474
      4422      4472      4475      4423      4422      4424      4423      4422      4472
      4424      4422      4472      4425      4428      4429      4425      4428      4430
      4425      4428      4431      4426      4425      4427      4426      4425      4428
      4427      4425      4428      4428      4431      4432      4428      4431      4433
      4428      4431      4434      4429      4428      4430      4429      4428      4431
      4430      4428      4431      4431      4434      4435      4431      4434      4436
      4431      4434      4437      4432      4431      4433      4432      4431      4434
      4433      4431      4434      4434      4437      4438      4434      4437      4439
      4434      4437      4440      4435      4434      4436      4435      4434      4437
      4436      4434      4437      4437      4440      4441      4437      4440      4442
      4437      4440      4443      4438      4437      4439      4438      4437      4440
      4439      4437      4440      4440      4443      4444      4440      4443      4445
      4441      4440      4442      4441      4440      4443      4442      4440      4443
      4443      4445      4446      4443      4445      4447      4444      4443      4445
      4445      4447      4448      4445      4447      4449      4445      4447      4450
      4446      4445      4447      4447      4450      4451      4447      4450      4452
      4447      4450      4453      4448      4447      4449      4448      4447      4450
      4449      4447      4450      4450      4453      4454      4450      4453      4455
      4450      4453      4456      4451      4450      4452      4451      4450      4453
      4452      4450      4453      4453      4456      4457      4453      4456      4458
      4453      4456      4459      4454      4453      4455      4454      4453      4456
      4455      4453      4456      4456      4459      4460      4456      4459      4461
      4456      4459      4462      4457      4456      4458      4457      4456      4459
      4458      4456      4459      4459      4462      4463      4459      4462      4464
      4459      4462      4465      4460      4459      4461      4460      4459      4462
      4461      4459      4462      4462      4465      4466      4462      4465      4467
      4462      4465      4468      4463      4462      4464      4463      4462      4465
      4464      4462      4465      4465      4468      4469      4465      4468      4470
      4465      4468      4471      4466      4465      4467      4466      4465      4468
      4467      4465      4468      4469      4468      4470      4469      4468      4471
      4470      4468      4471      4472      4475      4476      4472      4475      4477
      4472      4475      4478      4473      4472      4474      4473      4472      4475
      4474      4472      4475      4475      4478      4479      4475      4478      4480
      4475      4478      4481      4476      4475      4477      4476      4475      4478
      4477      4475      4478      4478      4481      4482      4478      4481      4483
      4478      4481      4484      4479      4478      4480      4479      4478      4481
      4480      4478      4481      4481      4484      4485      4481      4484      4486
      4481      4484      4487      4482      4481      4483      4482      4481      4484
      4483      4481      4484      4484      4487      4488      4484      4487      4489
      4484      4487      4490      4485      4484      4486      4485      4484      4487
      4486      4484      4487      4487      4490      4491      4487      4490      4492
      4487      4490      4493      4488      4487      4489      4488      4487      4490
      4489      4487      4490      4490      4493      4494      4490      4493      4495
      4490      4493      4496      4491      4490      4492      4491      4490      4493
      4492      4490      4493      4493      4496      4497      4493      4496      4498
      4493      4496      4499      4494      4493      4495      4494      4493      4496
      4495      4493      4496      4496      4499      4500      4496      4499      4501
      4496      4499      4502      4497      4496      4498      4497      4496      4499
      4498      4496      4499      4499      4502      4503      4499      4502      4504
      4499      4502      4505      4500      4499      4501      4500      4499      4502
      4501      4499      4502      4502      4505      4506      4502      4505      4507
      4502      4505      4508      4503      4502      4504      4503      4502      4505
      4504      4502      4505      4505      4508      4509      4505      4508      4510
      4505      4508      4511      4506      4505      4507      4506      4505      4508
      4507      4505      4508      4508      4511      4512      4508      4511      4513
      4508      4511      4514      4509      4508      4510      4509      4508      4511
      4510      4508      4511      4512      4511      4513      4512      4511      4514
      4513      4511      4514      4515      4516      4517      4515      4516      4518
      4515      4516      4531      4515      4519      4520      4515      4519      4521
      4515      4519      4522      4515      4523      4524      4515      4523      4525
      4515      4523      4526      4515      4527      4528      4515      4527      4529
      4515      4527      4530      4516      4515      4519      4516      4515      4523
      4516      4515      4527      4516      4531      4532      4516      4531      4533
      4516      4531      4537      4517      4516      4518      4517      4516      4531
      4518      4516      4531      4519      4515      4523      4519      4515      4527
      4520      4519      4521      4520      4519      4522      4521      4519      4522
      4523      4515      4527      4524      4523      4525      4524      4523      4526
      4525      4523      4526      4528      4527      4529      4528      4527      4530
      4529      4527      4530      4531      4537      4534      4532      4531      4533
      4532      4531      4537      4533      4531      4537      4534      4538      4539
      4535      4534      4536      4535      4534      4537      4535      4534      4538
      4536      4534      4537      4536      4534      4538      4537      4534      4538
      4538      4539      4540      4538      4539      4541      4538      4539      4542
      4539      4542      4543      4539      4542      4544      4539      4542      4550
      4540      4539      4541      4540      4539      4542      4541      4539      4542
      4542      4544      4545      4542      4550      4551      4542      4550      4552
      4542      4550      4553      4543      4542      4544      4543      4542      4550
      4544      4542      4550      4544      4545      4546      4544      4545      4547
      4545      4547      4548      4545      4547      4549      4545      4547      4559
      4546      4545      4547      4547      4559      4560      4547      4559      4561
      4547      4559      4562      4548      4547      4549      4548      4547      4559
      4549      4547      4559      4550      4553      4554      4551      4550      4552
      4551      4550      4553      4552      4550      4553      4553      4554      4555
      4553      4554      4556      4554      4556      4557      4554      4556      4558
      4554      4556      4606      4555      4554      4556      4556      4606      4607
      4556      4606      4608      4556      4606      4609      4557      4556      4558
      4557      4556      4606      4558      4556      4606      4559      4562      4563
      4559      4562      4564      4559      4562      4565      4560      4559      4561
      4560      4559      4562      4561      4559      4562      4562      4565      4566
      4562      4565      4567      4562      4565      4568      4563      4562      4564
      4563      4562      4565      4564      4562      4565      4565      4568      4569
      4565      4568      4570      4565      4568      4571      4566      4565      4567
      4566      4565      4568      4567      4565      4568      4568      4571      4572
      4568      4571      4573      4568      4571      4574      4569      4568      4570
      4569      4568      4571      4570      4568      4571      4571      4574      4575
      4571      4574      4576      4571      4574      4577      4572      4571      4573
      4572      4571      4574      4573      4571      4574      4574      4577      4578
      4574      4577      4579      4575      4574      4576      4575      4574      4577
      4576      4574      4577      4577      4579      4580      4577      4579      4581
      4578      4577      4579      4579      4581      4582      4579      4581      4583
      4579      4581      4584      4580      4579      4581      4581      4584      4585
      4581      4584      4586      4581      4584      4587      4582      4581      4583
      4582      4581      4584      4583      4581      4584      4584      4587      4588
      4584      4587      4589      4584      4587      4590      4585      4584      4586
      4585      4584      4587      4586      4584      4587      4587      4590      4591
      4587      4590      4592      4587      4590      4593      4588      4587      4589
      4588      4587      4590      4589      4587      4590      4590      4593      4594
      4590      4593      4595      4590      4593      4596      4591      4590      4592
      4591      4590      4593      4592      4590      4593      4593      4596      4597
      4593      4596      4598      4593      4596      4599      4594      4593      4595
      4594      4593      4596      4595      4593      4596      4596      4599      4600
      4596      4599      4601      4596      4599      4602      4597      4596      4598
      4597      4596      4599      4598      4596      4599      4599      4602      4603
      4599      4602      4604      4599      4602      4605      4600      4599      4601
      4600      4599      4602      4601      4599      4602      4603      4602      4604
      4603      4602      4605      4604      4602      4605      4606      4609      4610
      4606      4609      4611      4606      4609      4612      4607      4606      4608
      4607      4606      4609      4608      4606      4609      4609      4612      4613
      4609      4612      4614      4609      4612      4615      4610      4609      4611
      4610      4609      4612      4611      4609      4612      4612      4615      4616
      4612      4615      4617      4612      4615      4618      4613      4612      4614
      4613      4612      4615      4614      4612      4615      4615      4618      4619
      4615      4618      4620      4615      4618      4621      4616      4615      4617
      4616      4615      4618      4617      4615      4618      4618      4621      4622
      4618      4621      4623      4618      4621      4624      4619      4618      4620
      4619      4618      4621      4620      4618      4621      4621      4624      4625
      4621      4624      4626      4621      4624      4627      4622      4621      4623
      4622      4621      4624      4623      4621      4624      4624      4627      4628
      4624      4627      4629      4624      4627      4630      4625      4624      4626
      4625      4624      4627      4626      4624      4627      4627      4630      4631
      4627      4630      4632      4627      4630      4633      4628      4627      4629
      4628      4627      4630      4629      4627      4630      4630      4633      4634
      4630      4633      4635      4630      4633      4636      4631      4630      4632
      4631      4630      4633      4632      4630      4633      4633      4636      4637
      4633      4636      4638      4633      4636      4639      4634      4633      4635
      4634      4633      4636      4635      4633      4636      4636      4639      4640
      4636      4639      4641      4636      4639      4642      4637      4636      4638
      4637      4636      4639      4638      4636      4639      4639      4642      4643
      4639      4642      4644      4639      4642      4645      4640      4639      4641
      4640      4639      4642      4641      4639      4642      4642      4645      4646
      4642      4645      4647      4642      4645      4648      4643      4642      4644
      4643      4642      4645      4644      4642      4645      4646      4645      4647
      4646      4645      4648      4647      4645      4648      4649      4650      4651
      4649      4650      4652      4649      4650      4665      4649      4653      4654
      4649      4653      4655      4649      4653      4656      4649      4657      4658
      4649      4657      4659      4649      4657      4660      4649      4661      4662
      4649      4661      4663      4649      4661      4664      4650      4649      4653
      4650      4649      4657      4650      4649      4661      4650      4665      4666
      4650      4665      4667      4650      4665      4671      4651      4650      4652
      4651      4650      4665      4652      4650      4665      4653      4649      4657
      4653      4649      4661      4654      4653      4655      4654      4653      4656
      4655      4653      4656      4657      4649      4661      4658      4657      4659
      4658      4657      4660      4659      4657      4660      4662      4661      4663
      4662      4661      4664      4663      4661      4664      4665      4671      4668
      4666      4665      4667      4666      4665      4671      4667      4665      4671
      4668      4672      4673      4669      4668      4670      4669      4668      4671
      4669      4668      4672      4670      4668      4671      4670      4668      4672
      4671      4668      4672      4672      4673      4674      4672      4673      4675
      4672      4673      4676      4673      4676      4677      4673      4676      4678
      4673      4676      4684      4674      4673      4675      4674      4673      4676
      4675      4673      4676      4676      4678      4679      4676      4684      4685
      4676      4684      4686      4676      4684      4687      4677      4676      4678
      4677      4676      4684      4678      4676      4684      4678      4679      4680
      4678      4679      4681      4679      4681      4682      4679      4681      4683
      4679      4681      4693      4680      4679      4681      4681      4693      4694
      4681      4693      4695      4681      4693      4696      4682      4681      4683
      4682      4681      4693      4683      4681      4693      4684      4687      4688
      4685      4684      4686      4685      4684      4687      4686      4684      4687
      4687      4688      4689      4687      4688      4690      4688      4690      4691
      4688      4690      4692      4688      4690      4740      4689      4688      4690
      4690      4740      4741      4690      4740      4742      4690      4740      4743
      4691      4690      4692      4691      4690      4740      4692      4690      4740
      4693      4696      4697      4693      4696      4698      4693      4696      4699
      4694      4693      4695      4694      4693      4696      4695      4693      4696
      4696      4699      4700      4696      4699      4701      4696      4699      4702
      4697      4696      4698      4697      4696      4699      4698      4696      4699
      4699      4702      4703      4699      4702      4704      4699      4702      4705
      4700      4699      4701      4700      4699      4702      4701      4699      4702
      4702      4705      4706      4702      4705      4707      4702      4705      4708
      4703      4702      4704      4703      4702      4705      4704      4702      4705
      4705      4708      4709      4705      4708      4710      4705      4708      4711
      4706      4705      4707      4706      4705      4708      4707      4705      4708
      4708      4711      4712      4708      4711      4713      4709      4708      4710
      4709      4708      4711      4710      4708      4711      4711      4713      4714
      4711      4713      4715      4712      4711      4713      4713      4715      4716
      4713      4715      4717      4713      4715      4718      4714      4713      4715
      4715      4718      4719      4715      4718      4720      4715      4718      4721
      4716      4715      4717      4716      4715      4718      4717      4715      4718
      4718      4721      4722      4718      4721      4723      4718      4721      4724
      4719      4718      4720      4719      4718      4721      4720      4718      4721
      4721      4724      4725      4721      4724      4726      4721      4724      4727
      4722      4721      4723      4722      4721      4724      4723      4721      4724
      4724      4727      4728      4724      4727      4729      4724      4727      4730
      4725      4724      4726      4725      4724      4727      4726      4724      4727
      4727      4730      4731      4727      4730      4732      4727      4730      4733
      4728      4727      4729      4728      4727      4730      4729      4727      4730
      4730      4733      4734      4730      4733      4735      4730      4733      4736
      4731      4730      4732      4731      4730      4733      4732      4730      4733
      4733      4736      4737      4733      4736      4738      4733      4736      4739
      4734      4733      4735      4734      4733      4736      4735      4733      4736
      4737      4736      4738      4737      4736      4739      4738      4736      4739
      4740      4743      4744      4740      4743      4745      4740      4743      4746
      4741      4740      4742      4741      4740      4743      4742      4740      4743
      4743      4746      4747      4743      4746      4748      4743      4746      4749
      4744      4743      4745      4744      4743      4746      4745      4743      4746
      4746      4749      4750      4746      4749      4751      4746      4749      4752
      4747      4746      4748      4747      4746      4749      4748      4746      4749
      4749      4752      4753      4749      4752      4754      4749      4752      4755
      4750      4749      4751      4750      4749      4752      4751      4749      4752
      4752      4755      4756      4752      4755      4757      4752      4755      4758
      4753      4752      4754      4753      4752      4755      4754      4752      4755
      4755      4758      4759      4755      4758      4760      4755      4758      4761
      4756      4755      4757      4756      4755      4758      4757      4755      4758
      4758      4761      4762      4758      4761      4763      4758      4761      4764
      4759      4758      4760      4759      4758      4761      4760      4758      4761
      4761      4764      4765      4761      4764      4766      4761      4764      4767
      4762      4761      4763      4762      4761      4764      4763      4761      4764
      4764      4767      4768      4764      4767      4769      4764      4767      4770
      4765      4764      4766      4765      4764      4767      4766      4764      4767
      4767      4770      4771      4767      4770      4772      4767      4770      4773
      4768      4767      4769      4768      4767      4770      4769      4767      4770
      4770      4773      4774      4770      4773      4775      4770      4773      4776
      4771      4770      4772      4771      4770      4773      4772      4770      4773
      4773      4776      4777      4773      4776      4778      4773      4776      4779
      4774      4773      4775      4774      4773      4776      4775      4773      4776
      4776      4779      4780      4776      4779      4781      4776      4779      4782
      4777      4776      4778      4777      4776      4779      4778      4776      4779
      4780      4779      4781      4780      4779      4782      4781      4779      4782
      4783      4787      4788      4783      4787      4789      4783      4787      4792
      4784      4783      4785      4784      4783      4786      4784      4783      4787
      4785      4783      4786      4785      4783      4787      4786      4783      4787
      4787      4789      4790      4787      4789      4791      4787      4792      4793
      4787      4792      4794      4787      4792      4798      4788      4787      4789
      4788      4787      4792      4789      4787      4792      4790      4789      4791
      4792      4798      4795      4793      4792      4794      4793      4792      4798
      4794      4792      4798      4795      4799      4800      4796      4795      4797
      4796      4795      4798      4796      4795      4799      4797      4795      4798
      4797      4795      4799      4798      4795      4799      4799      4800      4801
      4799      4800      4802      4799      4800      4803      4800      4803      4804
      4800      4803      4805      4800      4803      4811      4801      4800      4802
      4801      4800      4803      4802      4800      4803      4803      4805      4806
      4803      4811      4812      4803      4811      4813      4803      4811      4814
      4804      4803      4805      4804      4803      4811      4805      4803      4811
      4805      4806      4807      4805      4806      4808      4806      4808      4809
      4806      4808      4810      4806      4808      4820      4807      4806      4808
      4808      4820      4821      4808      4820      4822      4808      4820      4823
      4809      4808      4810      4809      4808      4820      4810      4808      4820
      4811      4814      4815      4812      4811      4813      4812      4811      4814
      4813      4811      4814      4814      4815      4816      4814      4815      4817
      4815      4817      4818      4815      4817      4819      4815      4817      4867
      4816      4815      4817      4817      4867      4868      4817      4867      4869
      4817      4867      4870      4818      4817      4819      4818      4817      4867
      4819      4817      4867      4820      4823      4824      4820      4823      4825
      4820      4823      4826      4821      4820      4822      4821      4820      4823
      4822      4820      4823      4823      4826      4827      4823      4826      4828
      4823      4826      4829      4824      4823      4825      4824      4823      4826
      4825      4823      4826      4826      4829      4830      4826      4829      4831
      4826      4829      4832      4827      4826      4828      4827      4826      4829
      4828      4826      4829      4829      4832      4833      4829      4832      4834
      4829      4832      4835      4830      4829      4831      4830      4829      4832
      4831      4829      4832      4832      4835      4836      4832      4835      4837
      4832      4835      4838      4833      4832      4834      4833      4832      4835
      4834      4832      4835      4835      4838      4839      4835      4838      4840
      4836      4835      4837      4836      4835      4838      4837      4835      4838
      4838      4840      4841      4838      4840      4842      4839      4838      4840
      4840      4842      4843      4840      4842      4844      4840      4842      4845
      4841      4840      4842      4842      4845      4846      4842      4845      4847
      4842      4845      4848      4843      4842      4844      4843      4842      4845
      4844      4842      4845      4845      4848      4849      4845      4848      4850
      4845      4848      4851      4846      4845      4847      4846      4845      4848
      4847      4845      4848      4848      4851      4852      4848      4851      4853
      4848      4851      4854      4849      4848      4850      4849      4848      4851
      4850      4848      4851      4851      4854      4855      4851      4854      4856
      4851      4854      4857      4852      4851      4853      4852      4851      4854
      4853      4851      4854      4854      4857      4858      4854      4857      4859
      4854      4857      4860      4855      4854      4856      4855      4854      4857
      4856      4854      4857      4857      4860      4861      4857      4860      4862
      4857      4860      4863      4858      4857      4859      4858      4857      4860
      4859      4857      4860      4860      4863      4864      4860      4863      4865
      4860      4863      4866      4861      4860      4862      4861      4860      4863
      4862      4860      4863      4864      4863      4865      4864      4863      4866
      4865      4863      4866      4867      4870      4871      4867      4870      4872
      4867      4870      4873      4868      4867      4869      4868      4867      4870
      4869      4867      4870      4870      4873      4874      4870      4873      4875
      4870      4873      4876      4871      4870      4872      4871      4870      4873
      4872      4870      4873      4873      4876      4877      4873      4876      4878
      4873      4876      4879      4874      4873      4875      4874      4873      4876
      4875      4873      4876      4876      4879      4880      4876      4879      4881
      4876      4879      4882      4877      4876      4878      4877      4876      4879
      4878      4876      4879      4879      4882      4883      4879      4882      4884
      4879      4882      4885      4880      4879      4881      4880      4879      4882
      4881      4879      4882      4882      4885      4886      4882      4885      4887
      4882      4885      4888      4883      4882      4884      4883      4882      4885
      4884      4882      4885      4885      4888      4889      4885      4888      4890
      4885      4888      4891      4886      4885      4887      4886      4885      4888
      4887      4885      4888      4888      4891      4892      4888      4891      4893
      4888      4891      4894      4889      4888      4890      4889      4888      4891
      4890      4888      4891      4891      4894      4895      4891      4894      4896
      4891      4894      4897      4892      4891      4893      4892      4891      4894
      4893      4891      4894      4894      4897      4898      4894      4897      4899
      4894      4897      4900      4895      4894      4896      4895      4894      4897
      4896      4894      4897      4897      4900      4901      4897      4900      4902
      4897      4900      4903      4898      4897      4899      4898      4897      4900
      4899      4897      4900      4900      4903      4904      4900      4903      4905
      4900      4903      4906      4901      4900      4902      4901      4900      4903
      4902      4900      4903      4903      4906      4907      4903      4906      4908
      4903      4906      4909      4904      4903      4905      4904      4903      4906
      4905      4903      4906      4907      4906      4908      4907      4906      4909
      4908      4906      4909      4910      4911      4912      4910      4911      4913
      4910      4911      4926      4910      4914      4915      4910      4914      4916
      4910      4914      4917      4910      4918      4919      4910      4918      4920
      4910      4918      4921      4910      4922      4923      4910      4922      4924
      4910      4922      4925      4911      4910      4914      4911      4910      4918
      4911      4910      4922      4911      4926      4927      4911      4926      4928
      4911      4926      4932      4912      4911      4913      4912      4911      4926
      4913      4911      4926      4914      4910      4918      4914      4910      4922
      4915      4914      4916      4915      4914      4917      4916      4914      4917
      4918      4910      4922      4919      4918      4920      4919      4918      4921
      4920      4918      4921      4923      4922      4924      4923      4922      4925
      4924      4922      4925      4926      4932      4929      4927      4926      4928
      4927      4926      4932      4928      4926      4932      4929      4933      4934
      4930      4929      4931      4930      4929      4932      4930      4929      4933
      4931      4929      4932      4931      4929      4933      4932      4929      4933
      4933      4934      4935      4933      4934      4936      4933      4934      4937
      4934      4937      4938      4934      4937      4939      4934      4937      4945
      4935      4934      4936      4935      4934      4937      4936      4934      4937
      4937      4939      4940      4937      4945      4946      4937      4945      4947
      4937      4945      4948      4938      4937      4939      4938      4937      4945
      4939      4937      4945      4939      4940      4941      4939      4940      4942
      4940      4942      4943      4940      4942      4944      4940      4942      4954
      4941      4940      4942      4942      4954      4955      4942      4954      4956
      4942      4954      4957      4943      4942      4944      4943      4942      4954
      4944      4942      4954      4945      4948      4949      4946      4945      4947
      4946      4945      4948      4947      4945      4948      4948      4949      4950
      4948      4949      4951      4949      4951      4952      4949      4951      4953
      4949      4951      5001      4950      4949      4951      4951      5001      5002
      4951      5001      5003      4951      5001      5004      4952      4951      4953
      4952      4951      5001      4953      4951      5001      4954      4957      4958
      4954      4957      4959      4954      4957      4960      4955      4954      4956
      4955      4954      4957      4956      4954      4957      4957      4960      4961
      4957      4960      4962      4957      4960      4963      4958      4957      4959
      4958      4957      4960      4959      4957      4960      4960      4963      4964
      4960      4963      4965      4960      4963      4966      4961      4960      4962
      4961      4960      4963      4962      4960      4963      4963      4966      4967
      4963      4966      4968      4963      4966      4969      4964      4963      4965
      4964      4963      4966      4965      4963      4966      4966      4969      4970
      4966      4969      4971      4966      4969      4972      4967      4966      4968
      4967      4966      4969      4968      4966      4969      4969      4972      4973
      4969      4972      4974      4970      4969      4971      4970      4969      4972
      4971      4969      4972      4972      4974      4975      4972      4974      4976
      4973      4972      4974      4974      4976      4977      4974      4976      4978
      4974      4976      4979      4975      4974      4976      4976      4979      4980
      4976      4979      4981      4976      4979      4982      4977      4976      4978
      4977      4976      4979      4978      4976      4979      4979      4982      4983
      4979      4982      4984      4979      4982      4985      4980      4979      4981
      4980      4979      4982      4981      4979      4982      4982      4985      4986
      4982      4985      4987      4982      4985      4988      4983      4982      4984
      4983      4982      4985      4984      4982      4985      4985      4988      4989
      4985      4988      4990      4985      4988      4991      4986      4985      4987
      4986      4985      4988      4987      4985      4988      4988      4991      4992
      4988      4991      4993      4988      4991      4994      4989      4988      4990
      4989      4988      4991      4990      4988      4991      4991      4994      4995
      4991      4994      4996      4991      4994      4997      4992      4991      4993
      4992      4991      4994      4993      4991      4994      4994      4997      4998
      4994      4997      4999      4994      4997      5000      4995      4994      4996
      4995      4994      4997      4996      4994      4997      4998      4997      4999
      4998      4997      5000      4999      4997      5000      5001      5004      5005
      5001      5004      5006      5001      5004      5007      5002      5001      5003
      5002      5001      5004      5003      5001      5004      5004      5007      5008
      5004      5007      5009      5004      5007      5010      5005      5004      5006
      5005      5004      5007      5006      5004      5007      5007      5010      5011
      5007      5010      5012      5007      5010      5013      5008      5007      5009
      5008      5007      5010      5009      5007      5010      5010      5013      5014
      5010      5013      5015      5010      5013      5016      5011      5010      5012
      5011      5010      5013      5012      5010      5013      5013      5016      5017
      5013      5016      5018      5013      5016      5019      5014      5013      5015
      5014      5013      5016      5015      5013      5016      5016      5019      5020
      5016      5019      5021      5016      5019      5022      5017      5016      5018
      5017      5016      5019      5018      5016      5019      5019      5022      5023
      5019      5022      5024      5019      5022      5025      5020      5019      5021
      5020      5019      5022      5021      5019      5022      5022      5025      5026
      5022      5025      5027      5022      5025      5028      5023      5022      5024
      5023      5022      5025      5024      5022      5025      5025      5028      5029
      5025      5028      5030      5025      5028      5031      5026      5025      5027
      5026      5025      5028      5027      5025      5028      5028      5031      5032
      5028      5031      5033      5028      5031      5034      5029      5028      5030
      5029      5028      5031      5030      5028      5031      5031      5034      5035
      5031      5034      5036      5031      5034      5037      5032      5031      5033
      5032      5031      5034      5033      5031      5034      5034      5037      5038
      5034      5037      5039      5034      5037      5040      5035      5034      5036
      5035      5034      5037      5036      5034      5037      5037      5040      5041
      5037      5040      5042      5037      5040      5043      5038      5037      5039
      5038      5037      5040      5039      5037      5040      5041      5040      5042
      5041      5040      5043      5042      5040      5043      5044      5045      5046
      5044      5045      5047      5044      5045      5060      5044      5048      5049
      5044      5048      5050      5044      5048      5051      5044      5052      5053
      5044      5052      5054      5044      5052      5055      5044      5056      5057
      5044      5056      5058      5044      5056      5059      5045      5044      5048
      5045      5044      5052      5045      5044      5056      5045      5060      5061
      5045      5060      5062      5045      5060      5066      5046      5045      5047
      5046      5045      5060      5047      5045      5060      5048      5044      5052
      5048      5044      5056      5049      5048      5050      5049      5048      5051
      5050      5048      5051      5052      5044      5056      5053      5052      5054
      5053      5052      5055      5054      5052      5055      5057      5056      5058
      5057      5056      5059      5058      5056      5059      5060      5066      5063
      5061      5060      5062      5061      5060      5066      5062      5060      5066
      5063      5067      5068      5064      5063      5065      5064      5063      5066
      5064      5063      5067      5065      5063      5066      5065      5063      5067
      5066      5063      5067      5067      5068      5069      5067      5068      5070
      5067      5068      5071      5068      5071      5072      5068      5071      5073
      5068      5071      5079      5069      5068      5070      5069      5068      5071
      5070      5068      5071      5071      5073      5074      5071      5079      5080
      5071      5079      5081      5071      5079      5082      5072      5071      5073
      5072      5071      5079      5073      5071      5079      5073      5074      5075
      5073      5074      5076      5074      5076      5077      5074      5076      5078
      5074      5076      5088      5075      5074      5076      5076      5088      5089
      5076      5088      5090      5076      5088      5091      5077      5076      5078
      5077      5076      5088      5078      5076      5088      5079      5082      5083
      5080      5079      5081      5080      5079      5082      5081      5079      5082
      5082      5083      5084      5082      5083      5085      5083      5085      5086
      5083      5085      5087      5083      5085      5135      5084      5083      5085
      5085      5135      5136      5085      5135      5137      5085      5135      5138
      5086      5085      5087      5086      5085      5135      5087      5085      5135
      5088      5091      5092      5088      5091      5093      5088      5091      5094
      5089      5088      5090      5089      5088      5091      5090      5088      5091
      5091      5094      5095      5091      5094      5096      5091      5094      5097
      5092      5091      5093      5092      5091      5094      5093      5091      5094
      5094      5097      5098      5094      5097      5099      5094      5097      5100
      5095      5094      5096      5095      5094      5097      5096      5094      5097
      5097      5100      5101      5097      5100      5102      5097      5100      5103
      5098      5097      5099      5098      5097      5100      5099      5097      5100
      5100      5103      5104      5100      5103      5105      5100      5103      5106
      5101      5100      5102      5101      5100      5103      5102      5100      5103
      5103      5106      5107      5103      5106      5108      5104      5103      5105
      5104      5103      5106      5105      5103      5106      5106      5108      5109
      5106      5108      5110      5107      5106      5108      5108      5110      5111
      5108      5110      5112      5108      5110      5113      5109      5108      5110
      5110      5113      5114      5110      5113      5115      5110      5113      5116
      5111      5110      5112      5111      5110      5113      5112      5110      5113
      5113      5116      5117      5113      5116      5118      5113      5116      5119
      5114      5113      5115      5114      5113      5116      5115      5113      5116
      5116      5119      5120      5116      5119      5121      5116      5119      5122
      5117      5116      5118      5117      5116      5119      5118      5116      5119
      5119      5122      5123      5119      5122      5124      5119      5122      5125
      5120      5119      5121      5120      5119      5122      5121      5119      5122
      5122      5125      5126      5122      5125      5127      5122      5125      5128
      5123      5122      5124      5123      5122      5125      5124      5122      5125
      5125      5128      5129      5125      5128      5130      5125      5128      5131
      5126      5125      5127      5126      5125      5128      5127      5125      5128
      5128      5131      5132      5128      5131      5133      5128      5131      5134
      5129      5128      5130      5129      5128      5131      5130      5128      5131
      5132      5131      5133      5132      5131      5134      5133      5131      5134
      5135      5138      5139      5135      5138      5140      5135      5138      5141
      5136      5135      5137      5136      5135      5138      5137      5135      5138
      5138      5141      5142      5138      5141      5143      5138      5141      5144
      5139      5138      5140      5139      5138      5141      5140      5138      5141
      5141      5144      5145      5141      5144      5146      5141      5144      5147
      5142      5141      5143      5142      5141      5144      5143      5141      5144
      5144      5147      5148      5144      5147      5149      5144      5147      5150
      5145      5144      5146      5145      5144      5147      5146      5144      5147
      5147      5150      5151      5147      5150      5152      5147      5150      5153
      5148      5147      5149      5148      5147      5150      5149      5147      5150
      5150      5153      5154      5150      5153      5155      5150      5153      5156
      5151      5150      5152      5151      5150      5153      5152      5150      5153
      5153      5156      5157      5153      5156      5158      5153      5156      5159
      5154      5153      5155      5154      5153      5156      5155      5153      5156
      5156      5159      5160      5156      5159      5161      5156      5159      5162
      5157      5156      5158      5157      5156      5159      5158      5156      5159
      5159      5162      5163      5159      5162      5164      5159      5162      5165
      5160      5159      5161      5160      5159      5162      5161      5159      5162
      5162      5165      5166      5162      5165      5167      5162      5165      5168
      5163      5162      5164      5163      5162      5165      5164      5162      5165
      5165      5168      5169      5165      5168      5170      5165      5168      5171
      5166      5165      5167      5166      5165      5168      5167      5165      5168
      5168      5171      5172      5168      5171      5173      5168      5171      5174
      5169      5168      5170      5169      5168      5171      5170      5168      5171
      5171      5174      5175      5171      5174      5176      5171      5174      5177
      5172      5171      5173      5172      5171      5174      5173      5171      5174
      5175      5174      5176      5175      5174      5177      5176      5174      5177
      5178      5179      5180      5178      5179      5181      5178      5179      5194
      5178      5182      5183      5178      5182      5184      5178      5182      5185
      5178      5186      5187      5178      5186      5188      5178      5186      5189
      5178      5190      5191      5178      5190      5192      5178      5190      5193
      5179      5178      5182      5179      5178      5186      5179      5178      5190
      5179      5194      5195      5179      5194      5196      5179      5194      5200
      5180      5179      5181      5180      5179      5194      5181      5179      5194
      5182      5178      5186      5182      5178      5190      5183      5182      5184
      5183      5182      5185      5184      5182      5185      5186      5178      5190
      5187      5186      5188      5187      5186      5189      5188      5186      5189
      5191      5190      5192      5191      5190      5193      5192      5190      5193
      5194      5200      5197      5195      5194      5196      5195      5194      5200
      5196      5194      5200      5197      5201      5202      5198      5197      5199
      5198      5197      5200      5198      5197      5201      5199      5197      5200
      5199      5197      5201      5200      5197      5201      5201      5202      5203
      5201      5202      5204      5201      5202      5205      5202      5205      5206
      5202      5205      5207      5202      5205      5213      5203      5202      5204
      5203      5202      5205      5204      5202      5205      5205      5207      5208
      5205      5213      5214      5205      5213      5215      5205      5213      5216
      5206      5205      5207      5206      5205      5213      5207      5205      5213
      5207      5208      5209      5207      5208      5210      5208      5210      5211
      5208      5210      5212      5208      5210      5222      5209      5208      5210
      5210      5222      5223      5210      5222      5224      5210      5222      5225
      5211      5210      5212      5211      5210      5222      5212      5210      5222
      5213      5216      5217      5214      5213      5215      5214      5213      5216
      5215      5213      5216      5216      5217      5218      5216      5217      5219
      5217      5219      5220      5217      5219      5221      5217      5219      5269
      5218      5217      5219      5219      5269      5270      5219      5269      5271
      5219      5269      5272      5220      5219      5221      5220      5219      5269
      5221      5219      5269      5222      5225      5226      5222      5225      5227
      5222      5225      5228      5223      5222      5224      5223      5222      5225
      5224      5222      5225      5225      5228      5229      5225      5228      5230
      5225      5228      5231      5226      5225      5227      5226      5225      5228
      5227      5225      5228      5228      5231      5232      5228      5231      5233
      5228      5231      5234      5229      5228      5230      5229      5228      5231
      5230      5228      5231      5231      5234      5235      5231      5234      5236
      5231      5234      5237      5232      5231      5233      5232      5231      5234
      5233      5231      5234      5234      5237      5238      5234      5237      5239
      5234      5237      5240      5235      5234      5236      5235      5234      5237
      5236      5234      5237      5237      5240      5241      5237      5240      5242
      5238      5237      5239      5238      5237      5240      5239      5237      5240
      5240      5242      5243      5240      5242      5244      5241      5240      5242
      5242      5244      5245      5242      5244      5246      5242      5244      5247
      5243      5242      5244      5244      5247      5248      5244      5247      5249
      5244      5247      5250      5245      5244      5246      5245      5244      5247
      5246      5244      5247      5247      5250      5251      5247      5250      5252
      5247      5250      5253      5248      5247      5249      5248      5247      5250
      5249      5247      5250      5250      5253      5254      5250      5253      5255
      5250      5253      5256      5251      5250      5252      5251      5250      5253
      5252      5250      5253      5253      5256      5257      5253      5256      5258
      5253      5256      5259      5254      5253      5255      5254      5253      5256
      5255      5253      5256      5256      5259      5260      5256      5259      5261
      5256      5259      5262      5257      5256      5258      5257      5256      5259
      5258      5256      5259      5259      5262      5263      5259      5262      5264
      5259      5262      5265      5260      5259      5261      5260      5259      5262
      5261      5259      5262      5262      5265      5266      5262      5265      5267
      5262      5265      5268      5263      5262      5264      5263      5262      5265
      5264      5262      5265      5266      5265      5267      5266      5265      5268
      5267      5265      5268      5269      5272      5273      5269      5272      5274
      5269      5272      5275      5270      5269      5271      5270      5269      5272
      5271      5269      5272      5272      5275      5276      5272      5275      5277
      5272      5275      5278      5273      5272      5274      5273      5272      5275
      5274      5272      5275      5275      5278      5279      5275      5278      5280
      5275      5278      5281      5276      5275      5277      5276      5275      5278
      5277      5275      5278      5278      5281      5282      5278      5281      5283
      5278      5281      5284      5279      5278      5280      5279      5278      5281
      5280      5278      5281      5281      5284      5285      5281      5284      5286
      5281      5284      5287      5282      5281      5283      5282      5281      5284
      5283      5281      5284      5284      5287      5288      5284      5287      5289
      5284      5287      5290      5285      5284      5286      5285      5284      5287
      5286      5284      5287      5287      5290      5291      5287      5290      5292
      5287      5290      5293      5288      5287      5289      5288      5287      5290
      5289      5287      5290      5290      5293      5294      5290      5293      5295
      5290      5293      5296      5291      5290      5292      5291      5290      5293
      5292      5290      5293      5293      5296      5297      5293      5296      5298
      5293      5296      5299      5294      5293      5295      5294      5293      5296
      5295      5293      5296      5296      5299      5300      5296      5299      5301
      5296      5299      5302      5297      5296      5298      5297      5296      5299
      5298      5296      5299      5299      5302      5303      5299      5302      5304
      5299      5302      5305      5300      5299      5301      5300      5299      5302
      5301      5299      5302      5302      5305      5306      5302      5305      5307
      5302      5305      5308      5303      5302      5304      5303      5302      5305
      5304      5302      5305      5305      5308      5309      5305      5308      5310
      5305      5308      5311      5306      5305      5307      5306      5305      5308
      5307      5305      5308      5309      5308      5310      5309      5308      5311
      5310      5308      5311      5312      5313      5314      5312      5313      5315
      5312      5313      5328      5312      5316      5317      5312      5316      5318
      5312      5316      5319      5312      5320      5321      5312      5320      5322
      5312      5320      5323      5312      5324      5325      5312      5324      5326
      5312      5324      5327      5313      5312      5316      5313      5312      5320
      5313      5312      5324      5313      5328      5329      5313      5328      5330
      5313      5328      5334      5314      5313      5315      5314      5313      5328
      5315      5313      5328      5316      5312      5320      5316      5312      5324
      5317      5316      5318      5317      5316      5319      5318      5316      5319
      5320      5312      5324      5321      5320      5322      5321      5320      5323
      5322      5320      5323      5325      5324      5326      5325      5324      5327
      5326      5324      5327      5328      5334      5331      5329      5328      5330
      5329      5328      5334      5330      5328      5334      5331      5335      5336
      5332      5331      5333      5332      5331      5334      5332      5331      5335
      5333      5331      5334      5333      5331      5335      5334      5331      5335
      5335      5336      5337      5335      5336      5338      5335      5336      5339
      5336      5339      5340      5336      5339      5341      5336      5339      5347
      5337      5336      5338      5337      5336      5339      5338      5336      5339
      5339      5341      5342      5339      5347      5348      5339      5347      5349
      5339      5347      5350      5340      5339      5341      5340      5339      5347
      5341      5339      5347      5341      5342      5343      5341      5342      5344
      5342      5344      5345      5342      5344      5346      5342      5344      5356
      5343      5342      5344      5344      5356      5357      5344      5356      5358
      5344      5356      5359      5345      5344      5346      5345      5344      5356
      5346      5344      5356      5347      5350      5351      5348      5347      5349
      5348      5347      5350      5349      5347      5350      5350      5351      5352
      5350      5351      5353      5351      5353      5354      5351      5353      5355
      5351      5353      5403      5352      5351      5353      5353      5403      5404
      5353      5403      5405      5353      5403      5406      5354      5353      5355
      5354      5353      5403      5355      5353      5403      5356      5359      5360
      5356      5359      5361      5356      5359      5362      5357      5356      5358
      5357      5356      5359      5358      5356      5359      5359      5362      5363
      5359      5362      5364      5359      5362      5365      5360      5359      5361
      5360      5359      5362      5361      5359      5362      5362      5365      5366
      5362      5365      5367      5362      5365      5368      5363      5362      5364
      5363      5362      5365      5364      5362      5365      5365      5368      5369
      5365      5368      5370      5365      5368      5371      5366      5365      5367
      5366      5365      5368      5367      5365      5368      5368      5371      5372
      5368      5371      5373      5368      5371      5374      5369      5368      5370
      5369      5368      5371      5370      5368      5371      5371      5374      5375
      5371      5374      5376      5372      5371      5373      5372      5371      5374
      5373      5371      5374      5374      5376      5377      5374      5376      5378
      5375      5374      5376      5376      5378      5379      5376      5378      5380
      5376      5378      5381      5377      5376      5378      5378      5381      5382
      5378      5381      5383      5378      5381      5384      5379      5378      5380
      5379      5378      5381      5380      5378      5381      5381      5384      5385
      5381      5384      5386      5381      5384      5387      5382      5381      5383
      5382      5381      5384      5383      5381      5384      5384      5387      5388
      5384      5387      5389      5384      5387      5390      5385      5384      5386
      5385      5384      5387      5386      5384      5387      5387      5390      5391
      5387      5390      5392      5387      5390      5393      5388      5387      5389
      5388      5387      5390      5389      5387      5390      5390      5393      5394
      5390      5393      5395      5390      5393      5396      5391      5390      5392
      5391      5390      5393      5392      5390      5393      5393      5396      5397
      5393      5396      5398      5393      5396      5399      5394      5393      5395
      5394      5393      5396      5395      5393      5396      5396      5399      5400
      5396      5399      5401      5396      5399      5402      5397      5396      5398
      5397      5396      5399      5398      5396      5399      5400      5399      5401
      5400      5399      5402      5401      5399      5402      5403      5406      5407
      5403      5406      5408      5403      5406      5409      5404      5403      5405
      5404      5403      5406      5405      5403      5406      5406      5409      5410
      5406      5409      5411      5406      5409      5412      5407      5406      5408
      5407      5406      5409      5408      5406      5409      5409      5412      5413
      5409      5412      5414      5409      5412      5415      5410      5409      5411
      5410      5409      5412      5411      5409      5412      5412      5415      5416
      5412      5415      5417      5412      5415      5418      5413      5412      5414
      5413      5412      5415      5414      5412      5415      5415      5418      5419
      5415      5418      5420      5415      5418      5421      5416      5415      5417
      5416      5415      5418      5417      5415      5418      5418      5421      5422
      5418      5421      5423      5418      5421      5424      5419      5418      5420
      5419      5418      5421      5420      5418      5421      5421      5424      5425
      5421      5424      5426      5421      5424      5427      5422      5421      5423
      5422      5421      5424      5423      5421      5424      5424      5427      5428
      5424      5427      5429      5424      5427      5430      5425      5424      5426
      5425      5424      5427      5426      5424      5427      5427      5430      5431
      5427      5430      5432      5427      5430      5433      5428      5427      5429
      5428      5427      5430      5429      5427      5430      5430      5433      5434
      5430      5433      5435      5430      5433      5436      5431      5430      5432
      5431      5430      5433      5432      5430      5433      5433      5436      5437
      5433      5436      5438      5433      5436      5439      5434      5433      5435
      5434      5433      5436      5435      5433      5436      5436      5439      5440
      5436      5439      5441      5436      5439      5442      5437      5436      5438
      5437      5436      5439      5438      5436      5439      5439      5442      5443
      5439      5442      5444      5439      5442      5445      5440      5439      5441
      5440      5439      5442      5441      5439      5442      5443      5442      5444
      5443      5442      5445      5444      5442      5445      5446      5447      5448
      5446      5447      5449      5446      5447      5462      5446      5450      5451
      5446      5450      5452      5446      5450      5453      5446      5454      5455
      5446      5454      5456      5446      5454      5457      5446      5458      5459
      5446      5458      5460      5446      5458      5461      5447      5446      5450
      5447      5446      5454      5447      5446      5458      5447      5462      5463
      5447      5462      5464      5447      5462      5468      5448      5447      5449
      5448      5447      5462      5449      5447      5462      5450      5446      5454
      5450      5446      5458      5451      5450      5452      5451      5450      5453
      5452      5450      5453      5454      5446      5458      5455      5454      5456
      5455      5454      5457      5456      5454      5457      5459      5458      5460
      5459      5458      5461      5460      5458      5461      5462      5468      5465
      5463      5462      5464      5463      5462      5468      5464      5462      5468
      5465      5469      5470      5466      5465      5467      5466      5465      5468
      5466      5465      5469      5467      5465      5468      5467      5465      5469
      5468      5465      5469      5469      5470      5471      5469      5470      5472
      5469      5470      5473      5470      5473      5474      5470      5473      5475
      5470      5473      5481      5471      5470      5472      5471      5470      5473
      5472      5470      5473      5473      5475      5476      5473      5481      5482
      5473      5481      5483      5473      5481      5484      5474      5473      5475
      5474      5473      5481      5475      5473      5481      5475      5476      5477
      5475      5476      5478      5476      5478      5479      5476      5478      5480
      5476      5478      5490      5477      5476      5478      5478      5490      5491
      5478      5490      5492      5478      5490      5493      5479      5478      5480
      5479      5478      5490      5480      5478      5490      5481      5484      5485
      5482      5481      5483      5482      5481      5484      5483      5481      5484
      5484      5485      5486      5484      5485      5487      5485      5487      5488
      5485      5487      5489      5485      5487      5537      5486      5485      5487
      5487      5537      5538      5487      5537      5539      5487      5537      5540
      5488      5487      5489      5488      5487      5537      5489      5487      5537
      5490      5493      5494      5490      5493      5495      5490      5493      5496
      5491      5490      5492      5491      5490      5493      5492      5490      5493
      5493      5496      5497      5493      5496      5498      5493      5496      5499
      5494      5493      5495      5494      5493      5496      5495      5493      5496
      5496      5499      5500      5496      5499      5501      5496      5499      5502
      5497      5496      5498      5497      5496      5499      5498      5496      5499
      5499      5502      5503      5499      5502      5504      5499      5502      5505
      5500      5499      5501      5500      5499      5502      5501      5499      5502
      5502      5505      5506      5502      5505      5507      5502      5505      5508
      5503      5502      5504      5503      5502      5505      5504      5502      5505
      5505      5508      5509      5505      5508      5510      5506      5505      5507
      5506      5505      5508      5507      5505      5508      5508      5510      5511
      5508      5510      5512      5509      5508      5510      5510      5512      5513
      5510      5512      5514      5510      5512      5515      5511      5510      5512
      5512      5515      5516      5512      5515      5517      5512      5515      5518
      5513      5512      5514      5513      5512      5515      5514      5512      5515
      5515      5518      5519      5515      5518      5520      5515      5518      5521
      5516      5515      5517      5516      5515      5518      5517      5515      5518
      5518      5521      5522      5518      5521      5523      5518      5521      5524
      5519      5518      5520      5519      5518      5521      5520      5518      5521
      5521      5524      5525      5521      5524      5526      5521      5524      5527
      5522      5521      5523      5522      5521      5524      5523      5521      5524
      5524      5527      5528      5524      5527      5529      5524      5527      5530
      5525      5524      5526      5525      5524      5527      5526      5524      5527
      5527      5530      5531      5527      5530      5532      5527      5530      5533
      5528      5527      5529      5528      5527      5530      5529      5527      5530
      5530      5533      5534      5530      5533      5535      5530      5533      5536
      5531      5530      5532      5531      5530      5533      5532      5530      5533
      5534      5533      5535      5534      5533      5536      5535      5533      5536
      5537      5540      5541      5537      5540      5542      5537      5540      5543
      5538      5537      5539      5538      5537      5540      5539      5537      5540
      5540      5543      5544      5540      5543      5545      5540      5543      5546
      5541      5540      5542      5541      5540      5543      5542      5540      5543
      5543      5546      5547      5543      5546      5548      5543      5546      5549
      5544      5543      5545      5544      5543      5546      5545      5543      5546
      5546      5549      5550      5546      5549      5551      5546      5549      5552
      5547      5546      5548      5547      5546      5549      5548      5546      5549
      5549      5552      5553      5549      5552      5554      5549      5552      5555
      5550      5549      5551      5550      5549      5552      5551      5549      5552
      5552      5555      5556      5552      5555      5557      5552      5555      5558
      5553      5552      5554      5553      5552      5555      5554      5552      5555
      5555      5558      5559      5555      5558      5560      5555      5558      5561
      5556      5555      5557      5556      5555      5558      5557      5555      5558
      5558      5561      5562      5558      5561      5563      5558      5561      5564
      5559      5558      5560      5559      5558      5561      5560      5558      5561
      5561      5564      5565      5561      5564      5566      5561      5564      5567
      5562      5561      5563      5562      5561      5564      5563      5561      5564
      5564      5567      5568      5564      5567      5569      5564      5567      5570
      5565      5564      5566      5565      5564      5567      5566      5564      5567
      5567      5570      5571      5567      5570      5572      5567      5570      5573
      5568      5567      5569      5568      5567      5570      5569      5567      5570
      5570      5573      5574      5570      5573      5575      5570      5573      5576
      5571      5570      5572      5571      5570      5573      5572      5570      5573
      5573      5576      5577      5573      5576      5578      5573      5576      5579
      5574      5573      5575      5574      5573      5576      5575      5573      5576
      5577      5576      5578      5577      5576      5579      5578      5576      5579
      5580      5581      5582      5580      5581      5583      5580      5581      5596
      5580      5584      5585      5580      5584      5586      5580      5584      5587
      5580      5588      5589      5580      5588      5590      5580      5588      5591
      5580      5592      5593      5580      5592      5594      5580      5592      5595
      5581      5580      5584      5581      5580      5588      5581      5580      5592
      5581      5596      5597      5581      5596      5598      5581      5596      5602
      5582      5581      5583      5582      5581      5596      5583      5581      5596
      5584      5580      5588      5584      5580      5592      5585      5584      5586
      5585      5584      5587      5586      5584      5587      5588      5580      5592
      5589      5588      5590      5589      5588      5591      5590      5588      5591
      5593      5592      5594      5593      5592      5595      5594      5592      5595
      5596      5602      5599      5597      5596      5598      5597      5596      5602
      5598      5596      5602      5599      5603      5604      5600      5599      5601
      5600      5599      5602      5600      5599      5603      5601      5599      5602
      5601      5599      5603      5602      5599      5603      5603      5604      5605
      5603      5604      5606      5603      5604      5607      5604      5607      5608
      5604      5607      5609      5604      5607      5615      5605      5604      5606
      5605      5604      5607      5606      5604      5607      5607      5609      5610
      5607      5615      5616      5607      5615      5617      5607      5615      5618
      5608      5607      5609      5608      5607      5615      5609      5607      5615
      5609      5610      5611      5609      5610      5612      5610      5612      5613
      5610      5612      5614      5610      5612      5624      5611      5610      5612
      5612      5624      5625      5612      5624      5626      5612      5624      5627
      5613      5612      5614      5613      5612      5624      5614      5612      5624
      5615      5618      5619      5616      5615      5617      5616      5615      5618
      5617      5615      5618      5618      5619      5620      5618      5619      5621
      5619      5621      5622      5619      5621      5623      5619      5621      5671
      5620      5619      5621      5621      5671      5672      5621      5671      5673
      5621      5671      5674      5622      5621      5623      5622      5621      5671
      5623      5621      5671      5624      5627      5628      5624      5627      5629
      5624      5627      5630      5625      5624      5626      5625      5624      5627
      5626      5624      5627      5627      5630      5631      5627      5630      5632
      5627      5630      5633      5628      5627      5629      5628      5627      5630
      5629      5627      5630      5630      5633      5634      5630      5633      5635
      5630      5633      5636      5631      5630      5632      5631      5630      5633
      5632      5630      5633      5633      5636      5637      5633      5636      5638
      5633      5636      5639      5634      5633      5635      5634      5633      5636
      5635      5633      5636      5636      5639      5640      5636      5639      5641
      5636      5639      5642      5637      5636      5638      5637      5636      5639
      5638      5636      5639      5639      5642      5643      5639      5642      5644
      5640      5639      5641      5640      5639      5642      5641      5639      5642
      5642      5644      5645      5642      5644      5646      5643      5642      5644
      5644      5646      5647      5644      5646      5648      5644      5646      5649
      5645      5644      5646      5646      5649      5650      5646      5649      5651
      5646      5649      5652      5647      5646      5648      5647      5646      5649
      5648      5646      5649      5649      5652      5653      5649      5652      5654
      5649      5652      5655      5650      5649      5651      5650      5649      5652
      5651      5649      5652      5652      5655      5656      5652      5655      5657
      5652      5655      5658      5653      5652      5654      5653      5652      5655
      5654      5652      5655      5655      5658      5659      5655      5658      5660
      5655      5658      5661      5656      5655      5657      5656      5655      5658
      5657      5655      5658      5658      5661      5662      5658      5661      5663
      5658      5661      5664      5659      5658      5660      5659      5658      5661
      5660      5658      5661      5661      5664      5665      5661      5664      5666
      5661      5664      5667      5662      5661      5663      5662      5661      5664
      5663      5661      5664      5664      5667      5668      5664      5667      5669
      5664      5667      5670      5665      5664      5666      5665      5664      5667
      5666      5664      5667      5668      5667      5669      5668      5667      5670
      5669      5667      5670      5671      5674      5675      5671      5674      5676
      5671      5674      5677      5672      5671      5673      5672      5671      5674
      5673      5671      5674      5674      5677      5678      5674      5677      5679
      5674      5677      5680      5675      5674      5676      5675      5674      5677
      5676      5674      5677      5677      5680      5681      5677      5680      5682
      5677      5680      5683      5678      5677      5679      5678      5677      5680
      5679      5677      5680      5680      5683      5684      5680      5683      5685
      5680      5683      5686      5681      5680      5682      5681      5680      5683
      5682      5680      5683      5683      5686      5687      5683      5686      5688
      5683      5686      5689      5684      5683      5685      5684      5683      5686
      5685      5683      5686      5686      5689      5690      5686      5689      5691
      5686      5689      5692      5687      5686      5688      5687      5686      5689
      5688      5686      5689      5689      5692      5693      5689      5692      5694
      5689      5692      5695      5690      5689      5691      5690      5689      5692
      5691      5689      5692      5692      5695      5696      5692      5695      5697
      5692      5695      5698      5693      5692      5694      5693      5692      5695
      5694      5692      5695      5695      5698      5699      5695      5698      5700
      5695      5698      5701      5696      5695      5697      5696      5695      5698
      5697      5695      5698      5698      5701      5702      5698      5701      5703
      5698      5701      5704      5699      5698      5700      5699      5698      5701
      5700      5698      5701      5701      5704      5705      5701      5704      5706
      5701      5704      5707      5702      5701      5703      5702      5701      5704
      5703      5701      5704      5704      5707      5708      5704      5707      5709
      5704      5707      5710      5705      5704      5706      5705      5704      5707
      5706      5704      5707      5707      5710      5711      5707      5710      5712
      5707      5710      5713      5708      5707      5709      5708      5707      5710
      5709      5707      5710      5711      5710      5712      5711      5710      5713
      5712      5710      5713      5714      5715      5716      5714      5715      5717
      5714      5715      5730      5714      5718      5719      5714      5718      5720
      5714      5718      5721      5714      5722      5723      5714      5722      5724
      5714      5722      5725      5714      5726      5727      5714      5726      5728
      5714      5726      5729      5715      5714      5718      5715      5714      5722
      5715      5714      5726      5715      5730      5731      5715      5730      5732
      5715      5730      5736      5716      5715      5717      5716      5715      5730
      5717      5715      5730      5718      5714      5722      5718      5714      5726
      5719      5718      5720      5719      5718      5721      5720      5718      5721
      5722      5714      5726      5723      5722      5724      5723      5722      5725
      5724      5722      5725      5727      5726      5728      5727      5726      5729
      5728      5726      5729      5730      5736      5733      5731      5730      5732
      5731      5730      5736      5732      5730      5736      5733      5737      5738
      5734      5733      5735      5734      5733      5736      5734      5733      5737
      5735      5733      5736      5735      5733      5737      5736      5733      5737
      5737      5738      5739      5737      5738      5740      5737      5738      5741
      5738      5741      5742      5738      5741      5743      5738      5741      5749
      5739      5738      5740      5739      5738      5741      5740      5738      5741
      5741      5743      5744      5741      5749      5750      5741      5749      5751
      5741      5749      5752      5742      5741      5743      5742      5741      5749
      5743      5741      5749      5743      5744      5745      5743      5744      5746
      5744      5746      5747      5744      5746      5748      5744      5746      5758
      5745      5744      5746      5746      5758      5759      5746      5758      5760
      5746      5758      5761      5747      5746      5748      5747      5746      5758
      5748      5746      5758      5749      5752      5753      5750      5749      5751
      5750      5749      5752      5751      5749      5752      5752      5753      5754
      5752      5753      5755      5753      5755      5756      5753      5755      5757
      5753      5755      5805      5754      5753      5755      5755      5805      5806
      5755      5805      5807      5755      5805      5808      5756      5755      5757
      5756      5755      5805      5757      5755      5805      5758      5761      5762
      5758      5761      5763      5758      5761      5764      5759      5758      5760
      5759      5758      5761      5760      5758      5761      5761      5764      5765
      5761      5764      5766      5761      5764      5767      5762      5761      5763
      5762      5761      5764      5763      5761      5764      5764      5767      5768
      5764      5767      5769      5764      5767      5770      5765      5764      5766
      5765      5764      5767      5766      5764      5767      5767      5770      5771
      5767      5770      5772      5767      5770      5773      5768      5767      5769
      5768      5767      5770      5769      5767      5770      5770      5773      5774
      5770      5773      5775      5770      5773      5776      5771      5770      5772
      5771      5770      5773      5772      5770      5773      5773      5776      5777
      5773      5776      5778      5774      5773      5775      5774      5773      5776
      5775      5773      5776      5776      5778      5779      5776      5778      5780
      5777      5776      5778      5778      5780      5781      5778      5780      5782
      5778      5780      5783      5779      5778      5780      5780      5783      5784
      5780      5783      5785      5780      5783      5786      5781      5780      5782
      5781      5780      5783      5782      5780      5783      5783      5786      5787
      5783      5786      5788      5783      5786      5789      5784      5783      5785
      5784      5783      5786      5785      5783      5786      5786      5789      5790
      5786      5789      5791      5786      5789      5792      5787      5786      5788
      5787      5786      5789      5788      5786      5789      5789      5792      5793
      5789      5792      5794      5789      5792      5795      5790      5789      5791
      5790      5789      5792      5791      5789      5792      5792      5795      5796
      5792      5795      5797      5792      5795      5798      5793      5792      5794
      5793      5792      5795      5794      5792      5795      5795      5798      5799
      5795      5798      5800      5795      5798      5801      5796      5795      5797
      5796      5795      5798      5797      5795      5798      5798      5801      5802
      5798      5801      5803      5798      5801      5804      5799      5798      5800
      5799      5798      5801      5800      5798      5801      5802      5801      5803
      5802      5801      5804      5803      5801      5804      5805      5808      5809
      5805      5808      5810      5805      5808      5811      5806      5805      5807
      5806      5805      5808      5807      5805      5808      5808      5811      5812
      5808      5811      5813      5808      5811      5814      5809      5808      5810
      5809      5808      5811      5810      5808      5811      5811      5814      5815
      5811      5814      5816      5811      5814      5817      5812      5811      5813
      5812      5811      5814      5813      5811      5814      5814      5817      5818
      5814      5817      5819      5814      5817      5820      5815      5814      5816
      5815      5814      5817      5816      5814      5817      5817      5820      5821
      5817      5820      5822      5817      5820      5823      5818      5817      5819
      5818      5817      5820      5819      5817      5820      5820      5823      5824
      5820      5823      5825      5820      5823      5826      5821      5820      5822
      5821      5820      5823      5822      5820      5823      5823      5826      5827
      5823      5826      5828      5823      5826      5829      5824      5823      5825
      5824      5823      5826      5825      5823      5826      5826      5829      5830
      5826      5829      5831      5826      5829      5832      5827      5826      5828
      5827      5826      5829      5828      5826      5829      5829      5832      5833
      5829      5832      5834      5829      5832      5835      5830      5829      5831
      5830      5829      5832      5831      5829      5832      5832      5835      5836
      5832      5835      5837      5832      5835      5838      5833      5832      5834
      5833      5832      5835      5834      5832      5835      5835      5838      5839
      5835      5838      5840      5835      5838      5841      5836      5835      5837
      5836      5835      5838      5837      5835      5838      5838      5841      5842
      5838      5841      5843      5838      5841      5844      5839      5838      5840
      5839      5838      5841      5840      5838      5841      5841      5844      5845
      5841      5844      5846      5841      5844      5847      5842      5841      5843
      5842      5841      5844      5843      5841      5844      5845      5844      5846
      5845      5844      5847      5846      5844      5847      5848      5849      5850
      5848      5849      5851      5848      5849      5864      5848      5852      5853
      5848      5852      5854      5848      5852      5855      5848      5856      5857
      5848      5856      5858      5848      5856      5859      5848      5860      5861
      5848      5860      5862      5848      5860      5863      5849      5848      5852
      5849      5848      5856      5849      5848      5860      5849      5864      5865
      5849      5864      5866      5849      5864      5870      5850      5849      5851
      5850      5849      5864      5851      5849      5864      5852      5848      5856
      5852      5848      5860      5853      5852      5854      5853      5852      5855
      5854      5852      5855      5856      5848      5860      5857      5856      5858
      5857      5856      5859      5858      5856      5859      5861      5860      5862
      5861      5860      5863      5862      5860      5863      5864      5870      5867
      5865      5864      5866      5865      5864      5870      5866      5864      5870
      5867      5871      5872      5868      5867      5869      5868      5867      5870
      5868      5867      5871      5869      5867      5870      5869      5867      5871
      5870      5867      5871      5871      5872      5873      5871      5872      5874
      5871      5872      5875      5872      5875      5876      5872      5875      5877
      5872      5875      5883      5873      5872      5874      5873      5872      5875
      5874      5872      5875      5875      5877      5878      5875      5883      5884
      5875      5883      5885      5875      5883      5886      5876      5875      5877
      5876      5875      5883      5877      5875      5883      5877      5878      5879
      5877      5878      5880      5878      5880      5881      5878      5880      5882
      5878      5880      5892      5879      5878      5880      5880      5892      5893
      5880      5892      5894      5880      5892      5895      5881      5880      5882
      5881      5880      5892      5882      5880      5892      5883      5886      5887
      5884      5883      5885      5884      5883      5886      5885      5883      5886
      5886      5887      5888      5886      5887      5889      5887      5889      5890
      5887      5889      5891      5887      5889      5939      5888      5887      5889
      5889      5939      5940      5889      5939      5941      5889      5939      5942
      5890      5889      5891      5890      5889      5939      5891      5889      5939
      5892      5895      5896      5892      5895      5897      5892      5895      5898
      5893      5892      5894      5893      5892      5895      5894      5892      5895
      5895      5898      5899      5895      5898      5900      5895      5898      5901
      5896      5895      5897      5896      5895      5898      5897      5895      5898
      5898      5901      5902      5898      5901      5903      5898      5901      5904
      5899      5898      5900      5899      5898      5901      5900      5898      5901
      5901      5904      5905      5901      5904      5906      5901      5904      5907
      5902      5901      5903      5902      5901      5904      5903      5901      5904
      5904      5907      5908      5904      5907      5909      5904      5907      5910
      5905      5904      5906      5905      5904      5907      5906      5904      5907
      5907      5910      5911      5907      5910      5912      5908      5907      5909
      5908      5907      5910      5909      5907      5910      5910      5912      5913
      5910      5912      5914      5911      5910      5912      5912      5914      5915
      5912      5914      5916      5912      5914      5917      5913      5912      5914
      5914      5917      5918      5914      5917      5919      5914      5917      5920
      5915      5914      5916      5915      5914      5917      5916      5914      5917
      5917      5920      5921      5917      5920      5922      5917      5920      5923
      5918      5917      5919      5918      5917      5920      5919      5917      5920
      5920      5923      5924      5920      5923      5925      5920      5923      5926
      5921      5920      5922      5921      5920      5923      5922      5920      5923
      5923      5926      5927      5923      5926      5928      5923      5926      5929
      5924      5923      5925      5924      5923      5926      5925      5923      5926
      5926      5929      5930      5926      5929      5931      5926      5929      5932
      5927      5926      5928      5927      5926      5929      5928      5926      5929
      5929      5932      5933      5929      5932      5934      5929      5932      5935
      5930      5929      5931      5930      5929      5932      5931      5929      5932
      5932      5935      5936      5932      5935      5937      5932      5935      5938
      5933      5932      5934      5933      5932      5935      5934      5932      5935
      5936      5935      5937      5936      5935      5938      5937      5935      5938
      5939      5942      5943      5939      5942      5944      5939      5942      5945
      5940      5939      5941      5940      5939      5942      5941      5939      5942
      5942      5945      5946      5942      5945      5947      5942      5945      5948
      5943      5942      5944      5943      5942      5945      5944      5942      5945
      5945      5948      5949      5945      5948      5950      5945      5948      5951
      5946      5945      5947      5946      5945      5948      5947      5945      5948
      5948      5951      5952      5948      5951      5953      5948      5951      5954
      5949      5948      5950      5949      5948      5951      5950      5948      5951
      5951      5954      5955      5951      5954      5956      5951      5954      5957
      5952      5951      5953      5952      5951      5954      5953      5951      5954
      5954      5957      5958      5954      5957      5959      5954      5957      5960
      5955      5954      5956      5955      5954      5957      5956      5954      5957
      5957      5960      5961      5957      5960      5962      5957      5960      5963
      5958      5957      5959      5958      5957      5960      5959      5957      5960
      5960      5963      5964      5960      5963      5965      5960      5963      5966
      5961      5960      5962      5961      5960      5963      5962      5960      5963
      5963      5966      5967      5963      5966      5968      5963      5966      5969
      5964      5963      5965      5964      5963      5966      5965      5963      5966
      5966      5969      5970      5966      5969      5971      5966      5969      5972
      5967      5966      5968      5967      5966      5969      5968      5966      5969
      5969      5972      5973      5969      5972      5974      5969      5972      5975
      5970      5969      5971      5970      5969      5972      5971      5969      5972
      5972      5975      5976      5972      5975      5977      5972      5975      5978
      5973      5972      5974      5973      5972      5975      5974      5972      5975
      5975      5978      5979      5975      5978      5980      5975      5978      5981
      5976      5975      5977      5976      5975      5978      5977      5975      5978
      5979      5978      5980      5979      5978      5981      5980      5978      5981
      5982      5983      5984      5982      5983      5985      5982      5983      5998
      5982      5986      5987      5982      5986      5988      5982      5986      5989
      5982      5990      5991      5982      5990      5992      5982      5990      5993
      5982      5994      5995      5982      5994      5996      5982      5994      5997
      5983      5982      5986      5983      5982      5990      5983      5982      5994
      5983      5998      5999      5983      5998      6000      5983      5998      6004
      5984      5983      5985      5984      5983      5998      5985      5983      5998
      5986      5982      5990      5986      5982      5994      5987      5986      5988
      5987      5986      5989      5988      5986      5989      5990      5982      5994
      5991      5990      5992      5991      5990      5993      5992      5990      5993
      5995      5994      5996      5995      5994      5997      5996      5994      5997
      5998      6004      6001      5999      5998      6000      5999      5998      6004
      6000      5998      6004      6001      6005      6006      6002      6001      6003
      6002      6001      6004      6002      6001      6005      6003      6001      6004
      6003      6001      6005      6004      6001      6005      6005      6006      6007
      6005      6006      6008      6005      6006      6009      6006      6009      6010
      6006      6009      6011      6006      6009      6017      6007      6006      6008
      6007      6006      6009      6008      6006      6009      6009      6011      6012
      6009      6017      6018      6009      6017      6019      6009      6017      6020
      6010      6009      6011      6010      6009      6017      6011      6009      6017
      6011      6012      6013      6011      6012      6014      6012      6014      6015
      6012      6014      6016      6012      6014      6026      6013      6012      6014
      6014      6026      6027      6014      6026      6028      6014      6026      6029
      6015      6014      6016      6015      6014      6026      6016      6014      6026
      6017      6020      6021      6018      6017      6019      6018      6017      6020
      6019      6017      6020      6020      6021      6022      6020      6021      6023
      6021      6023      6024      6021      6023      6025      6021      6023      6073
      6022      6021      6023      6023      6073      6074      6023      6073      6075
      6023      6073      6076      6024      6023      6025      6024      6023      6073
      6025      6023      6073      6026      6029      6030      6026      6029      6031
      6026      6029      6032      6027      6026      6028      6027      6026      6029
      6028      6026      6029      6029      6032      6033      6029      6032      6034
      6029      6032      6035      6030      6029      6031      6030      6029      6032
      6031      6029      6032      6032      6035      6036      6032      6035      6037
      6032      6035      6038      6033      6032      6034      6033      6032      6035
      6034      6032      6035      6035      6038      6039      6035      6038      6040
      6035      6038      6041      6036      6035      6037      6036      6035      6038
      6037      6035      6038      6038      6041      6042      6038      6041      6043
      6038      6041      6044      6039      6038      6040      6039      6038      6041
      6040      6038      6041      6041      6044      6045      6041      6044      6046
      6042      6041      6043      6042      6041      6044      6043      6041      6044
      6044      6046      6047      6044      6046      6048      6045      6044      6046
      6046      6048      6049      6046      6048      6050      6046      6048      6051
      6047      6046      6048      6048      6051      6052      6048      6051      6053
      6048      6051      6054      6049      6048      6050      6049      6048      6051
      6050      6048      6051      6051      6054      6055      6051      6054      6056
      6051      6054      6057      6052      6051      6053      6052      6051      6054
      6053      6051      6054      6054      6057      6058      6054      6057      6059
      6054      6057      6060      6055      6054      6056      6055      6054      6057
      6056      6054      6057      6057      6060      6061      6057      6060      6062
      6057      6060      6063      6058      6057      6059      6058      6057      6060
      6059      6057      6060      6060      6063      6064      6060      6063      6065
      6060      6063      6066      6061      6060      6062      6061      6060      6063
      6062      6060      6063      6063      6066      6067      6063      6066      6068
      6063      6066      6069      6064      6063      6065      6064      6063      6066
      6065      6063      6066      6066      6069      6070      6066      6069      6071
      6066      6069      6072      6067      6066      6068      6067      6066      6069
      6068      6066      6069      6070      6069      6071      6070      6069      6072
      6071      6069      6072      6073      6076      6077      6073      6076      6078
      6073      6076      6079      6074      6073      6075      6074      6073      6076
      6075      6073      6076      6076      6079      6080      6076      6079      6081
      6076      6079      6082      6077      6076      6078      6077      6076      6079
      6078      6076      6079      6079      6082      6083      6079      6082      6084
      6079      6082      6085      6080      6079      6081      6080      6079      6082
      6081      6079      6082      6082      6085      6086      6082      6085      6087
      6082      6085      6088      6083      6082      6084      6083      6082      6085
      6084      6082      6085      6085      6088      6089      6085      6088      6090
      6085      6088      6091      6086      6085      6087      6086      6085      6088
      6087      6085      6088      6088      6091      6092      6088      6091      6093
      6088      6091      6094      6089      6088      6090      6089      6088      6091
      6090      6088      6091      6091      6094      6095      6091      6094      6096
      6091      6094      6097      6092      6091      6093      6092      6091      6094
      6093      6091      6094      6094      6097      6098      6094      6097      6099
      6094      6097      6100      6095      6094      6096      6095      6094      6097
      6096      6094      6097      6097      6100      6101      6097      6100      6102
      6097      6100      6103      6098      6097      6099      6098      6097      6100
      6099      6097      6100      6100      6103      6104      6100      6103      6105
      6100      6103      6106      6101      6100      6102      6101      6100      6103
      6102      6100      6103      6103      6106      6107      6103      6106      6108
      6103      6106      6109      6104      6103      6105      6104      6103      6106
      6105      6103      6106      6106      6109      6110      6106      6109      6111
      6106      6109      6112      6107      6106      6108      6107      6106      6109
      6108      6106      6109      6109      6112      6113      6109      6112      6114
      6109      6112      6115      6110      6109      6111      6110      6109      6112
      6111      6109      6112      6113      6112      6114      6113      6112      6115
      6114      6112      6115      6116      6117      6118      6116      6117      6119
      6116      6117      6132      6116      6120      6121      6116      6120      6122
      6116      6120      6123      6116      6124      6125      6116      6124      6126
      6116      6124      6127      6116      6128      6129      6116      6128      6130
      6116      6128      6131      6117      6116      6120      6117      6116      6124
      6117      6116      6128      6117      6132      6133      6117      6132      6134
      6117      6132      6138      6118      6117      6119      6118      6117      6132
      6119      6117      6132      6120      6116      6124      6120      6116      6128
      6121      6120      6122      6121      6120      6123      6122      6120      6123
      6124      6116      6128      6125      6124      6126      6125      6124      6127
      6126      6124      6127      6129      6128      6130      6129      6128      6131
      6130      6128      6131      6132      6138      6135      6133      6132      6134
      6133      6132      6138      6134      6132      6138      6135      6139      6140
      6136      6135      6137      6136      6135      6138      6136      6135      6139
      6137      6135      6138      6137      6135      6139      6138      6135      6139
      6139      6140      6141      6139      6140      6142      6139      6140      6143
      6140      6143      6144      6140      6143      6145      6140      6143      6151
      6141      6140      6142      6141      6140      6143      6142      6140      6143
      6143      6145      6146      6143      6151      6152      6143      6151      6153
      6143      6151      6154      6144      6143      6145      6144      6143      6151
      6145      6143      6151      6145      6146      6147      6145      6146      6148
      6146      6148      6149      6146      6148      6150      6146      6148      6160
      6147      6146      6148      6148      6160      6161      6148      6160      6162
      6148      6160      6163      6149      6148      6150      6149      6148      6160
      6150      6148      6160      6151      6154      6155      6152      6151      6153
      6152      6151      6154      6153      6151      6154      6154      6155      6156
      6154      6155      6157      6155      6157      6158      6155      6157      6159
      6155      6157      6207      6156      6155      6157      6157      6207      6208
      6157      6207      6209      6157      6207      6210      6158      6157      6159
      6158      6157      6207      6159      6157      6207      6160      6163      6164
      6160      6163      6165      6160      6163      6166      6161      6160      6162
      6161      6160      6163      6162      6160      6163      6163      6166      6167
      6163      6166      6168      6163      6166      6169      6164      6163      6165
      6164      6163      6166      6165      6163      6166      6166      6169      6170
      6166      6169      6171      6166      6169      6172      6167      6166      6168
      6167      6166      6169      6168      6166      6169      6169      6172      6173
      6169      6172      6174      6169      6172      6175      6170      6169      6171
      6170      6169      6172      6171      6169      6172      6172      6175      6176
      6172      6175      6177      6172      6175      6178      6173      6172      6174
      6173      6172      6175      6174      6172      6175      6175      6178      6179
      6175      6178      6180      6176      6175      6177      6176      6175      6178
      6177      6175      6178      6178      6180      6181      6178      6180      6182
      6179      6178      6180      6180      6182      6183      6180      6182      6184
      6180      6182      6185      6181      6180      6182      6182      6185      6186
      6182      6185      6187      6182      6185      6188      6183      6182      6184
      6183      6182      6185      6184      6182      6185      6185      6188      6189
      6185      6188      6190      6185      6188      6191      6186      6185      6187
      6186      6185      6188      6187      6185      6188      6188      6191      6192
      6188      6191      6193      6188      6191      6194      6189      6188      6190
      6189      6188      6191      6190      6188      6191      6191      6194      6195
      6191      6194      6196      6191      6194      6197      6192      6191      6193
      6192      6191      6194      6193      6191      6194      6194      6197      6198
      6194      6197      6199      6194      6197      6200      6195      6194      6196
      6195      6194      6197      6196      6194      6197      6197      6200      6201
      6197      6200      6202      6197      6200      6203      6198      6197      6199
      6198      6197      6200      6199      6197      6200      6200      6203      6204
      6200      6203      6205      6200      6203      6206      6201      6200      6202
      6201      6200      6203      6202      6200      6203      6204      6203      6205
      6204      6203      6206      6205      6203      6206      6207      6210      6211
      6207      6210      6212      6207      6210      6213      6208      6207      6209
      6208      6207      6210      6209      6207      6210      6210      6213      6214
      6210      6213      6215      6210      6213      6216      6211      6210      6212
      6211      6210      6213      6212      6210      6213      6213      6216      6217
      6213      6216      6218      6213      6216      6219      6214      6213      6215
      6214      6213      6216      6215      6213      6216      6216      6219      6220
      6216      6219      6221      6216      6219      6222      6217      6216      6218
      6217      6216      6219      6218      6216      6219      6219      6222      6223
      6219      6222      6224      6219      6222      6225      6220      6219      6221
      6220      6219      6222      6221      6219      6222      6222      6225      6226
      6222      6225      6227      6222      6225      6228      6223      6222      6224
      6223      6222      6225      6224      6222      6225      6225      6228      6229
      6225      6228      6230      6225      6228      6231      6226      6225      6227
      6226      6225      6228      6227      6225      6228      6228      6231      6232
      6228      6231      6233      6228      6231      6234      6229      6228      6230
      6229      6228      6231      6230      6228      6231      6231      6234      6235
      6231      6234      6236      6231      6234      6237      6232      6231      6233
      6232      6231      6234      6233      6231      6234      6234      6237      6238
      6234      6237      6239      6234      6237      6240      6235      6234      6236
      6235      6234      6237      6236      6234      6237      6237      6240      6241
      6237      6240      6242      6237      6240      6243      6238      6237      6239
      6238      6237      6240      6239      6237      6240      6240      6243      6244
      6240      6243      6245      6240      6243      6246      6241      6240      6242
      6241      6240      6243      6242      6240      6243      6243      6246      6247
      6243      6246      6248      6243      6246      6249      6244      6243      6245
      6244      6243      6246      6245      6243      6246      6247      6246      6248
      6247      6246      6249      6248      6246      6249      6250      6251      6252
      6250      6251      6253      6250      6251      6266      6250      6254      6255
      6250      6254      6256      6250      6254      6257      6250      6258      6259
      6250      6258      6260      6250      6258      6261      6250      6262      6263
      6250      6262      6264      6250      6262      6265      6251      6250      6254
      6251      6250      6258      6251      6250      6262      6251      6266      6267
      6251      6266      6268      6251      6266      6272      6252      6251      6253
      6252      6251      6266      6253      6251      6266      6254      6250      6258
      6254      6250      6262      6255      6254      6256      6255      6254      6257
      6256      6254      6257      6258      6250      6262      6259      6258      6260
      6259      6258      6261      6260      6258      6261      6263      6262      6264
      6263      6262      6265      6264      6262      6265      6266      6272      6269
      6267      6266      6268      6267      6266      6272      6268      6266      6272
      6269      6273      6274      6270      6269      6271      6270      6269      6272
      6270      6269      6273      6271      6269      6272      6271      6269      6273
      6272      6269      6273      6273      6274      6275      6273      6274      6276
      6273      6274      6277      6274      6277      6278      6274      6277      6279
      6274      6277      6285      6275      6274      6276      6275      6274      6277
      6276      6274      6277      6277      6279      6280      6277      6285      6286
      6277      6285      6287      6277      6285      6288      6278      6277      6279
      6278      6277      6285      6279      6277      6285      6279      6280      6281
      6279      6280      6282      6280      6282      6283      6280      6282      6284
      6280      6282      6294      6281      6280      6282      6282      6294      6295
      6282      6294      6296      6282      6294      6297      6283      6282      6284
      6283      6282      6294      6284      6282      6294      6285      6288      6289
      6286      6285      6287      6286      6285      6288      6287      6285      6288
      6288      6289      6290      6288      6289      6291      6289      6291      6292
      6289      6291      6293      6289      6291      6341      6290      6289      6291
      6291      6341      6342      6291      6341      6343      6291      6341      6344
      6292      6291      6293      6292      6291      6341      6293      6291      6341
      6294      6297      6298      6294      6297      6299      6294      6297      6300
      6295      6294      6296      6295      6294      6297      6296      6294      6297
      6297      6300      6301      6297      6300      6302      6297      6300      6303
      6298      6297      6299      6298      6297      6300      6299      6297      6300
      6300      6303      6304      6300      6303      6305      6300      6303      6306
      6301      6300      6302      6301      6300      6303      6302      6300      6303
      6303      6306      6307      6303      6306      6308      6303      6306      6309
      6304      6303      6305      6304      6303      6306      6305      6303      6306
      6306      6309      6310      6306      6309      6311      6306      6309      6312
      6307      6306      6308      6307      6306      6309      6308      6306      6309
      6309      6312      6313      6309      6312      6314      6310      6309      6311
      6310      6309      6312      6311      6309      6312      6312      6314      6315
      6312      6314      6316      6313      6312      6314      6314      6316      6317
      6314      6316      6318      6314      6316      6319      6315      6314      6316
      6316      6319      6320      6316      6319      6321      6316      6319      6322
      6317      6316      6318      6317      6316      6319      6318      6316      6319
      6319      6322      6323      6319      6322      6324      6319      6322      6325
      6320      6319      6321      6320      6319      6322      6321      6319      6322
      6322      6325      6326      6322      6325      6327      6322      6325      6328
      6323      6322      6324      6323      6322      6325      6324      6322      6325
      6325      6328      6329      6325      6328      6330      6325      6328      6331
      6326      6325      6327      6326      6325      6328      6327      6325      6328
      6328      6331      6332      6328      6331      6333      6328      6331      6334
      6329      6328      6330      6329      6328      6331      6330      6328      6331
      6331      6334      6335      6331      6334      6336      6331      6334      6337
      6332      6331      6333      6332      6331      6334      6333      6331      6334
      6334      6337      6338      6334      6337      6339      6334      6337      6340
      6335      6334      6336      6335      6334      6337      6336      6334      6337
      6338      6337      6339      6338      6337      6340      6339      6337      6340
      6341      6344      6345      6341      6344      6346      6341      6344      6347
      6342      6341      6343      6342      6341      6344      6343      6341      6344
      6344      6347      6348      6344      6347      6349      6344      6347      6350
      6345      6344      6346      6345      6344      6347      6346      6344      6347
      6347      6350      6351      6347      6350      6352      6347      6350      6353
      6348      6347      6349      6348      6347      6350      6349      6347      6350
      6350      6353      6354      6350      6353      6355      6350      6353      6356
      6351      6350      6352      6351      6350      6353      6352      6350      6353
      6353      6356      6357      6353      6356      6358      6353      6356      6359
      6354      6353      6355      6354      6353      6356      6355      6353      6356
      6356      6359      6360      6356      6359      6361      6356      6359      6362
      6357      6356      6358      6357      6356      6359      6358      6356      6359
      6359      6362      6363      6359      6362      6364      6359      6362      6365
      6360      6359      6361      6360      6359      6362      6361      6359      6362
      6362      6365      6366      6362      6365      6367      6362      6365      6368
      6363      6362      6364      6363      6362      6365      6364      6362      6365
      6365      6368      6369      6365      6368      6370      6365      6368      6371
      6366      6365      6367      6366      6365      6368      6367      6365      6368
      6368      6371      6372      6368      6371      6373      6368      6371      6374
      6369      6368      6370      6369      6368      6371      6370      6368      6371
      6371      6374      6375      6371      6374      6376      6371      6374      6377
      6372      6371      6373      6372      6371      6374      6373      6371      6374
      6374      6377      6378      6374      6377      6379      6374      6377      6380
      6375      6374      6376      6375      6374      6377      6376      6374      6377
      6377      6380      6381      6377      6380      6382      6377      6380      6383
      6378      6377      6379      6378      6377      6380      6379      6377      6380
      6381      6380      6382      6381      6380      6383      6382      6380      6383
      6384      6388      6389      6384      6388      6390      6384      6388      6393
      6385      6384      6386      6385      6384      6387      6385      6384      6388
      6386      6384      6387      6386      6384      6388      6387      6384      6388
      6388      6390      6391      6388      6390      6392      6388      6393      6394
      6388      6393      6395      6388      6393      6399      6389      6388      6390
      6389      6388      6393      6390      6388      6393      6391      6390      6392
      6393      6399      6396      6394      6393      6395      6394      6393      6399
      6395      6393      6399      6396      6400      6401      6397      6396      6398
      6397      6396      6399      6397      6396      6400      6398      6396      6399
      6398      6396      6400      6399      6396      6400      6400      6401      6402
      6400      6401      6403      6400      6401      6404      6401      6404      6405
      6401      6404      6406      6401      6404      6412      6402      6401      6403
      6402      6401      6404      6403      6401      6404      6404      6406      6407
      6404      6412      6413      6404      6412      6414      6404      6412      6415
      6405      6404      6406      6405      6404      6412      6406      6404      6412
      6406      6407      6408      6406      6407      6409      6407      6409      6410
      6407      6409      6411      6407      6409      6421      6408      6407      6409
      6409      6421      6422      6409      6421      6423      6409      6421      6424
      6410      6409      6411      6410      6409      6421      6411      6409      6421
      6412      6415      6416      6413      6412      6414      6413      6412      6415
      6414      6412      6415      6415      6416      6417      6415      6416      6418
      6416      6418      6419      6416      6418      6420      6416      6418      6468
      6417      6416      6418      6418      6468      6469      6418      6468      6470
      6418      6468      6471      6419      6418      6420      6419      6418      6468
      6420      6418      6468      6421      6424      6425      6421      6424      6426
      6421      6424      6427      6422      6421      6423      6422      6421      6424
      6423      6421      6424      6424      6427      6428      6424      6427      6429
      6424      6427      6430      6425      6424      6426      6425      6424      6427
      6426      6424      6427      6427      6430      6431      6427      6430      6432
      6427      6430      6433      6428      6427      6429      6428      6427      6430
      6429      6427      6430      6430      6433      6434      6430      6433      6435
      6430      6433      6436      6431      6430      6432      6431      6430      6433
      6432      6430      6433      6433      6436      6437      6433      6436      6438
      6433      6436      6439      6434      6433      6435      6434      6433      6436
      6435      6433      6436      6436      6439      6440      6436      6439      6441
      6437      6436      6438      6437      6436      6439      6438      6436      6439
      6439      6441      6442      6439      6441      6443      6440      6439      6441
      6441      6443      6444      6441      6443      6445      6441      6443      6446
      6442      6441      6443      6443      6446      6447      6443      6446      6448
      6443      6446      6449      6444      6443      6445      6444      6443      6446
      6445      6443      6446      6446      6449      6450      6446      6449      6451
      6446      6449      6452      6447      6446      6448      6447      6446      6449
      6448      6446      6449      6449      6452      6453      6449      6452      6454
      6449      6452      6455      6450      6449      6451      6450      6449      6452
      6451      6449      6452      6452      6455      6456      6452      6455      6457
      6452      6455      6458      6453      6452      6454      6453      6452      6455
      6454      6452      6455      6455      6458      6459      6455      6458      6460
      6455      6458      6461      6456      6455      6457      6456      6455      6458
      6457      6455      6458      6458      6461      6462      6458      6461      6463
      6458      6461      6464      6459      6458      6460      6459      6458      6461
      6460      6458      6461      6461      6464      6465      6461      6464      6466
      6461      6464      6467      6462      6461      6463      6462      6461      6464
      6463      6461      6464      6465      6464      6466      6465      6464      6467
      6466      6464      6467      6468      6471      6472      6468      6471      6473
      6468      6471      6474      6469      6468      6470      6469      6468      6471
      6470      6468      6471      6471      6474      6475      6471      6474      6476
      6471      6474      6477      6472      6471      6473      6472      6471      6474
      6473      6471      6474      6474      6477      6478      6474      6477      6479
      6474      6477      6480      6475      6474      6476      6475      6474      6477
      6476      6474      6477      6477      6480      6481      6477      6480      6482
      6477      6480      6483      6478      6477      6479      6478      6477      6480
      6479      6477      6480      6480      6483      6484      6480      6483      6485
      6480      6483      6486      6481      6480      6482      6481      6480      6483
      6482      6480      6483      6483      6486      6487      6483      6486      6488
      6483      6486      6489      6484      6483      6485      6484      6483      6486
      6485      6483      6486      6486      6489      6490      6486      6489      6491
      6486      6489      6492      6487      6486      6488      6487      6486      6489
      6488      6486      6489      6489      6492      6493      6489      6492      6494
      6489      6492      6495      6490      6489      6491      6490      6489      6492
      6491      6489      6492      6492      6495      6496      6492      6495      6497
      6492      6495      6498      6493      6492      6494      6493      6492      6495
      6494      6492      6495      6495      6498      6499      6495      6498      6500
      6495      6498      6501      6496      6495      6497      6496      6495      6498
      6497      6495      6498      6498      6501      6502      6498      6501      6503
      6498      6501      6504      6499      6498      6500      6499      6498      6501
      6500      6498      6501      6501      6504      6505      6501      6504      6506
      6501      6504      6507      6502      6501      6503      6502      6501      6504
      6503      6501      6504      6504      6507      6508      6504      6507      6509
      6504      6507      6510      6505      6504      6506      6505      6504      6507
      6506      6504      6507      6508      6507      6509      6508      6507      6510
      6509      6507      6510      6511      6515      6516      6511      6515      6517
      6511      6515      6520      6512      6511      6513      6512      6511      6514
      6512      6511      6515      6513      6511      6514      6513      6511      6515
      6514      6511      6515      6515      6517      6518      6515      6517      6519
      6515      6520      6521      6515      6520      6522      6515      6520      6526
      6516      6515      6517      6516      6515      6520      6517      6515      6520
      6518      6517      6519      6520      6526      6523      6521      6520      6522
      6521      6520      6526      6522      6520      6526      6523      6527      6528
      6524      6523      6525      6524      6523      6526      6524      6523      6527
      6525      6523      6526      6525      6523      6527      6526      6523      6527
      6527      6528      6529      6527      6528      6530      6527      6528      6531
      6528      6531      6532      6528      6531      6533      6528      6531      6539
      6529      6528      6530      6529      6528      6531      6530      6528      6531
      6531      6533      6534      6531      6539      6540      6531      6539      6541
      6531      6539      6542      6532      6531      6533      6532      6531      6539
      6533      6531      6539      6533      6534      6535      6533      6534      6536
      6534      6536      6537      6534      6536      6538      6534      6536      6548
      6535      6534      6536      6536      6548      6549      6536      6548      6550
      6536      6548      6551      6537      6536      6538      6537      6536      6548
      6538      6536      6548      6539      6542      6543      6540      6539      6541
      6540      6539      6542      6541      6539      6542      6542      6543      6544
      6542      6543      6545      6543      6545      6546      6543      6545      6547
      6543      6545      6595      6544      6543      6545      6545      6595      6596
      6545      6595      6597      6545      6595      6598      6546      6545      6547
      6546      6545      6595      6547      6545      6595      6548      6551      6552
      6548      6551      6553      6548      6551      6554      6549      6548      6550
      6549      6548      6551      6550      6548      6551      6551      6554      6555
      6551      6554      6556      6551      6554      6557      6552      6551      6553
      6552      6551      6554      6553      6551      6554      6554      6557      6558
      6554      6557      6559      6554      6557      6560      6555      6554      6556
      6555      6554      6557      6556      6554      6557      6557      6560      6561
      6557      6560      6562      6557      6560      6563      6558      6557      6559
      6558      6557      6560      6559      6557      6560      6560      6563      6564
      6560      6563      6565      6560      6563      6566      6561      6560      6562
      6561      6560      6563      6562      6560      6563      6563      6566      6567
      6563      6566      6568      6564      6563      6565      6564      6563      6566
      6565      6563      6566      6566      6568      6569      6566      6568      6570
      6567      6566      6568      6568      6570      6571      6568      6570      6572
      6568      6570      6573      6569      6568      6570      6570      6573      6574
      6570      6573      6575      6570      6573      6576      6571      6570      6572
      6571      6570      6573      6572      6570      6573      6573      6576      6577
      6573      6576      6578      6573      6576      6579      6574      6573      6575
      6574      6573      6576      6575      6573      6576      6576      6579      6580
      6576      6579      6581      6576      6579      6582      6577      6576      6578
      6577      6576      6579      6578      6576      6579      6579      6582      6583
      6579      6582      6584      6579      6582      6585      6580      6579      6581
      6580      6579      6582      6581      6579      6582      6582      6585      6586
      6582      6585      6587      6582      6585      6588      6583      6582      6584
      6583      6582      6585      6584      6582      6585      6585      6588      6589
      6585      6588      6590      6585      6588      6591      6586      6585      6587
      6586      6585      6588      6587      6585      6588      6588      6591      6592
      6588      6591      6593      6588      6591      6594      6589      6588      6590
      6589      6588      6591      6590      6588      6591      6592      6591      6593
      6592      6591      6594      6593      6591      6594      6595      6598      6599
      6595      6598      6600      6595      6598      6601      6596      6595      6597
      6596      6595      6598      6597      6595      6598      6598      6601      6602
      6598      6601      6603      6598      6601      6604      6599      6598      6600
      6599      6598      6601      6600      6598      6601      6601      6604      6605
      6601      6604      6606      6601      6604      6607      6602      6601      6603
      6602      6601      6604      6603      6601      6604      6604      6607      6608
      6604      6607      6609      6604      6607      6610      6605      6604      6606
      6605      6604      6607      6606      6604      6607      6607      6610      6611
      6607      6610      6612      6607      6610      6613      6608      6607      6609
      6608      6607      6610      6609      6607      6610      6610      6613      6614
      6610      6613      6615      6610      6613      6616      6611      6610      6612
      6611      6610      6613      6612      6610      6613      6613      6616      6617
      6613      6616      6618      6613      6616      6619      6614      6613      6615
      6614      6613      6616      6615      6613      6616      6616      6619      6620
      6616      6619      6621      6616      6619      6622      6617      6616      6618
      6617      6616      6619      6618      6616      6619      6619      6622      6623
      6619      6622      6624      6619      6622      6625      6620      6619      6621
      6620      6619      6622      6621      6619      6622      6622      6625      6626
      6622      6625      6627      6622      6625      6628      6623      6622      6624
      6623      6622      6625      6624      6622      6625      6625      6628      6629
      6625      6628      6630      6625      6628      6631      6626      6625      6627
      6626      6625      6628      6627      6625      6628      6628      6631      6632
      6628      6631      6633      6628      6631      6634      6629      6628      6630
      6629      6628      6631      6630      6628      6631      6631      6634      6635
      6631      6634      6636      6631      6634      6637      6632      6631      6633
      6632      6631      6634      6633      6631      6634      6635      6634      6636
      6635      6634      6637      6636      6634      6637      6638      6642      6643
      6638      6642      6644      6638      6642      6647      6639      6638      6640
      6639      6638      6641      6639      6638      6642      6640      6638      6641
      6640      6638      6642      6641      6638      6642      6642      6644      6645
      6642      6644      6646      6642      6647      6648      6642      6647      6649
      6642      6647      6653      6643      6642      6644      6643      6642      6647
      6644      6642      6647      6645      6644      6646      6647      6653      6650
      6648      6647      6649      6648      6647      6653      6649      6647      6653
      6650      6654      6655      6651      6650      6652      6651      6650      6653
      6651      6650      6654      6652      6650      6653      6652      6650      6654
      6653      6650      6654      6654      6655      6656      6654      6655      6657
      6654      6655      6658      6655      6658      6659      6655      6658      6660
      6655      6658      6666      6656      6655      6657      6656      6655      6658
      6657      6655      6658      6658      6660      6661      6658      6666      6667
      6658      6666      6668      6658      6666      6669      6659      6658      6660
      6659      6658      6666      6660      6658      6666      6660      6661      6662
      6660      6661      6663      6661      6663      6664      6661      6663      6665
      6661      6663      6675      6662      6661      6663      6663      6675      6676
      6663      6675      6677      6663      6675      6678      6664      6663      6665
      6664      6663      6675      6665      6663      6675      6666      6669      6670
      6667      6666      6668      6667      6666      6669      6668      6666      6669
      6669      6670      6671      6669      6670      6672      6670      6672      6673
      6670      6672      6674      6670      6672      6722      6671      6670      6672
      6672      6722      6723      6672      6722      6724      6672      6722      6725
      6673      6672      6674      6673      6672      6722      6674      6672      6722
      6675      6678      6679      6675      6678      6680      6675      6678      6681
      6676      6675      6677      6676      6675      6678      6677      6675      6678
      6678      6681      6682      6678      6681      6683      6678      6681      6684
      6679      6678      6680      6679      6678      6681      6680      6678      6681
      6681      6684      6685      6681      6684      6686      6681      6684      6687
      6682      6681      6683      6682      6681      6684      6683      6681      6684
      6684      6687      6688      6684      6687      6689      6684      6687      6690
      6685      6684      6686      6685      6684      6687      6686      6684      6687
      6687      6690      6691      6687      6690      6692      6687      6690      6693
      6688      6687      6689      6688      6687      6690      6689      6687      6690
      6690      6693      6694      6690      6693      6695      6691      6690      6692
      6691      6690      6693      6692      6690      6693      6693      6695      6696
      6693      6695      6697      6694      6693      6695      6695      6697      6698
      6695      6697      6699      6695      6697      6700      6696      6695      6697
      6697      6700      6701      6697      6700      6702      6697      6700      6703
      6698      6697      6699      6698      6697      6700      6699      6697      6700
      6700      6703      6704      6700      6703      6705      6700      6703      6706
      6701      6700      6702      6701      6700      6703      6702      6700      6703
      6703      6706      6707      6703      6706      6708      6703      6706      6709
      6704      6703      6705      6704      6703      6706      6705      6703      6706
      6706      6709      6710      6706      6709      6711      6706      6709      6712
      6707      6706      6708      6707      6706      6709      6708      6706      6709
      6709      6712      6713      6709      6712      6714      6709      6712      6715
      6710      6709      6711      6710      6709      6712      6711      6709      6712
      6712      6715      6716      6712      6715      6717      6712      6715      6718
      6713      6712      6714      6713      6712      6715      6714      6712      6715
      6715      6718      6719      6715      6718      6720      6715      6718      6721
      6716      6715      6717      6716      6715      6718      6717      6715      6718
      6719      6718      6720      6719      6718      6721      6720      6718      6721
      6722      6725      6726      6722      6725      6727      6722      6725      6728
      6723      6722      6724      6723      6722      6725      6724      6722      6725
      6725      6728      6729      6725      6728      6730      6725      6728      6731
      6726      6725      6727      6726      6725      6728      6727      6725      6728
      6728      6731      6732      6728      6731      6733      6728      6731      6734
      6729      6728      6730      6729      6728      6731      6730      6728      6731
      6731      6734      6735      6731      6734      6736      6731      6734      6737
      6732      6731      6733      6732      6731      6734      6733      6731      6734
      6734      6737      6738      6734      6737      6739      6734      6737      6740
      6735      6734      6736      6735      6734      6737      6736      6734      6737
      6737      6740      6741      6737      6740      6742      6737      6740      6743
      6738      6737      6739      6738      6737      6740      6739      6737      6740
      6740      6743      6744      6740      6743      6745      6740      6743      6746
      6741      6740      6742      6741      6740      6743      6742      6740      6743
      6743      6746      6747      6743      6746      6748      6743      6746      6749
      6744      6743      6745      6744      6743      6746      6745      6743      6746
      6746      6749      6750      6746      6749      6751      6746      6749      6752
      6747      6746      6748      6747      6746      6749      6748      6746      6749
      6749      6752      6753      6749      6752      6754      6749      6752      6755
      6750      6749      6751      6750      6749      6752      6751      6749      6752
      6752      6755      6756      6752      6755      6757      6752      6755      6758
      6753      6752      6754      6753      6752      6755      6754      6752      6755
      6755      6758      6759      6755      6758      6760      6755      6758      6761
      6756      6755      6757      6756      6755      6758      6757      6755      6758
      6758      6761      6762      6758      6761      6763      6758      6761      6764
      6759      6758      6760      6759      6758      6761      6760      6758      6761
      6762      6761      6763      6762      6761      6764      6763      6761      6764
      6765      6766      6767      6765      6766      6768      6765      6766      6781
      6765      6769      6770      6765      6769      6771      6765      6769      6772
      6765      6773      6774      6765      6773      6775      6765      6773      6776
      6765      6777      6778      6765      6777      6779      6765      6777      6780
      6766      6765      6769      6766      6765      6773      6766      6765      6777
      6766      6781      6782      6766      6781      6783      6766      6781      6787
      6767      6766      6768      6767      6766      6781      6768      6766      6781
      6769      6765      6773      6769      6765      6777      6770      6769      6771
      6770      6769      6772      6771      6769      6772      6773      6765      6777
      6774      6773      6775      6774      6773      6776      6775      6773      6776
      6778      6777      6779      6778      6777      6780      6779      6777      6780
      6781      6787      6784      6782      6781      6783      6782      6781      6787
      6783      6781      6787      6784      6788      6789      6785      6784      6786
      6785      6784      6787      6785      6784      6788      6786      6784      6787
      6786      6784      6788      6787      6784      6788      6788      6789      6790
      6788      6789      6791      6788      6789      6792      6789      6792      6793
      6789      6792      6794      6789      6792      6800      6790      6789      6791
      6790      6789      6792      6791      6789      6792      6792      6794      6795
      6792      6800      6801      6792      6800      6802      6792      6800      6803
      6793      6792      6794      6793      6792      6800      6794      6792      6800
      6794      6795      6796      6794      6795      6797      6795      6797      6798
      6795      6797      6799      6795      6797      6809      6796      6795      6797
      6797      6809      6810      6797      6809      6811      6797      6809      6812
      6798      6797      6799      6798      6797      6809      6799      6797      6809
      6800      6803      6804      6801      6800      6802      6801      6800      6803
      6802      6800      6803      6803      6804      6805      6803      6804      6806
      6804      6806      6807      6804      6806      6808      6804      6806      6856
      6805      6804      6806      6806      6856      6857      6806      6856      6858
      6806      6856      6859      6807      6806      6808      6807      6806      6856
      6808      6806      6856      6809      6812      6813      6809      6812      6814
      6809      6812      6815      6810      6809      6811      6810      6809      6812
      6811      6809      6812      6812      6815      6816      6812      6815      6817
      6812      6815      6818      6813      6812      6814      6813      6812      6815
      6814      6812      6815      6815      6818      6819      6815      6818      6820
      6815      6818      6821      6816      6815      6817      6816      6815      6818
      6817      6815      6818      6818      6821      6822      6818      6821      6823
      6818      6821      6824      6819      6818      6820      6819      6818      6821
      6820      6818      6821      6821      6824      6825      6821      6824      6826
      6821      6824      6827      6822      6821      6823      6822      6821      6824
      6823      6821      6824      6824      6827      6828      6824      6827      6829
      6825      6824      6826      6825      6824      6827      6826      6824      6827
      6827      6829      6830      6827      6829      6831      6828      6827      6829
      6829      6831      6832      6829      6831      6833      6829      6831      6834
      6830      6829      6831      6831      6834      6835      6831      6834      6836
      6831      6834      6837      6832      6831      6833      6832      6831      6834
      6833      6831      6834      6834      6837      6838      6834      6837      6839
      6834      6837      6840      6835      6834      6836      6835      6834      6837
      6836      6834      6837      6837      6840      6841      6837      6840      6842
      6837      6840      6843      6838      6837      6839      6838      6837      6840
      6839      6837      6840      6840      6843      6844      6840      6843      6845
      6840      6843      6846      6841      6840      6842      6841      6840      6843
      6842      6840      6843      6843      6846      6847      6843      6846      6848
      6843      6846      6849      6844      6843      6845      6844      6843      6846
      6845      6843      6846      6846      6849      6850      6846      6849      6851
      6846      6849      6852      6847      6846      6848      6847      6846      6849
      6848      6846      6849      6849      6852      6853      6849      6852      6854
      6849      6852      6855      6850      6849      6851      6850      6849      6852
      6851      6849      6852      6853      6852      6854      6853      6852      6855
      6854      6852      6855      6856      6859      6860      6856      6859      6861
      6856      6859      6862      6857      6856      6858      6857      6856      6859
      6858      6856      6859      6859      6862      6863      6859      6862      6864
      6859      6862      6865      6860      6859      6861      6860      6859      6862
      6861      6859      6862      6862      6865      6866      6862      6865      6867
      6862      6865      6868      6863      6862      6864      6863      6862      6865
      6864      6862      6865      6865      6868      6869      6865      6868      6870
      6865      6868      6871      6866      6865      6867      6866      6865      6868
      6867      6865      6868      6868      6871      6872      6868      6871      6873
      6868      6871      6874      6869      6868      6870      6869      6868      6871
      6870      6868      6871      6871      6874      6875      6871      6874      6876
      6871      6874      6877      6872      6871      6873      6872      6871      6874
      6873      6871      6874      6874      6877      6878      6874      6877      6879
      6874      6877      6880      6875      6874      6876      6875      6874      6877
      6876      6874      6877      6877      6880      6881      6877      6880      6882
      6877      6880      6883      6878      6877      6879      6878      6877      6880
      6879      6877      6880      6880      6883      6884      6880      6883      6885
      6880      6883      6886      6881      6880      6882      6881      6880      6883
      6882      6880      6883      6883      6886      6887      6883      6886      6888
      6883      6886      6889      6884      6883      6885      6884      6883      6886
      6885      6883      6886      6886      6889      6890      6886      6889      6891
      6886      6889      6892      6887      6886      6888      6887      6886      6889
      6888      6886      6889      6889      6892      6893      6889      6892      6894
      6889      6892      6895      6890      6889      6891      6890      6889      6892
      6891      6889      6892      6892      6895      6896      6892      6895      6897
      6892      6895      6898      6893      6892      6894      6893      6892      6895
      6894      6892      6895      6896      6895      6897      6896      6895      6898
      6897      6895      6898      6899      6900      6901      6899      6900      6902
      6899      6900      6915      6899      6903      6904      6899      6903      6905
      6899      6903      6906      6899      6907      6908      6899      6907      6909
      6899      6907      6910      6899      6911      6912      6899      6911      6913
      6899      6911      6914      6900      6899      6903      6900      6899      6907
      6900      6899      6911      6900      6915      6916      6900      6915      6917
      6900      6915      6921      6901      6900      6902      6901      6900      6915
      6902      6900      6915      6903      6899      6907      6903      6899      6911
      6904      6903      6905      6904      6903      6906      6905      6903      6906
      6907      6899      6911      6908      6907      6909      6908      6907      6910
      6909      6907      6910      6912      6911      6913      6912      6911      6914
      6913      6911      6914      6915      6921      6918      6916      6915      6917
      6916      6915      6921      6917      6915      6921      6918      6922      6923
      6919      6918      6920      6919      6918      6921      6919      6918      6922
      6920      6918      6921      6920      6918      6922      6921      6918      6922
      6922      6923      6924      6922      6923      6925      6922      6923      6926
      6923      6926      6927      6923      6926      6928      6923      6926      6934
      6924      6923      6925      6924      6923      6926      6925      6923      6926
      6926      6928      6929      6926      6934      6935      6926      6934      6936
      6926      6934      6937      6927      6926      6928      6927      6926      6934
      6928      6926      6934      6928      6929      6930      6928      6929      6931
      6929      6931      6932      6929      6931      6933      6929      6931      6943
      6930      6929      6931      6931      6943      6944      6931      6943      6945
      6931      6943      6946      6932      6931      6933      6932      6931      6943
      6933      6931      6943      6934      6937      6938      6935      6934      6936
      6935      6934      6937      6936      6934      6937      6937      6938      6939
      6937      6938      6940      6938      6940      6941      6938      6940      6942
      6938      6940      6990      6939      6938      6940      6940      6990      6991
      6940      6990      6992      6940      6990      6993      6941      6940      6942
      6941      6940      6990      6942      6940      6990      6943      6946      6947
      6943      6946      6948      6943      6946      6949      6944      6943      6945
      6944      6943      6946      6945      6943      6946      6946      6949      6950
      6946      6949      6951      6946      6949      6952      6947      6946      6948
      6947      6946      6949      6948      6946      6949      6949      6952      6953
      6949      6952      6954      6949      6952      6955      6950      6949      6951
      6950      6949      6952      6951      6949      6952      6952      6955      6956
      6952      6955      6957      6952      6955      6958      6953      6952      6954
      6953      6952      6955      6954      6952      6955      6955      6958      6959
      6955      6958      6960      6955      6958      6961      6956      6955      6957
      6956      6955      6958      6957      6955      6958      6958      6961      6962
      6958      6961      6963      6959      6958      6960      6959      6958      6961
      6960      6958      6961      6961      6963      6964      6961      6963      6965
      6962      6961      6963      6963      6965      6966      6963      6965      6967
      6963      6965      6968      6964      6963      6965      6965      6968      6969
      6965      6968      6970      6965      6968      6971      6966      6965      6967
      6966      6965      6968      6967      6965      6968      6968      6971      6972
      6968      6971      6973      6968      6971      6974      6969      6968      6970
      6969      6968      6971      6970      6968      6971      6971      6974      6975
      6971      6974      6976      6971      6974      6977      6972      6971      6973
      6972      6971      6974      6973      6971      6974      6974      6977      6978
      6974      6977      6979      6974      6977      6980      6975      6974      6976
      6975      6974      6977      6976      6974      6977      6977      6980      6981
      6977      6980      6982      6977      6980      6983      6978      6977      6979
      6978      6977      6980      6979      6977      6980      6980      6983      6984
      6980      6983      6985      6980      6983      6986      6981      6980      6982
      6981      6980      6983      6982      6980      6983      6983      6986      6987
      6983      6986      6988      6983      6986      6989      6984      6983      6985
      6984      6983      6986      6985      6983      6986      6987      6986      6988
      6987      6986      6989      6988      6986      6989      6990      6993      6994
      6990      6993      6995      6990      6993      6996      6991      6990      6992
      6991      6990      6993      6992      6990      6993      6993      6996      6997
      6993      6996      6998      6993      6996      6999      6994      6993      6995
      6994      6993      6996      6995      6993      6996      6996      6999      7000
      6996      6999      7001      6996      6999      7002      6997      6996      6998
      6997      6996      6999      6998      6996      6999      6999      7002      7003
      6999      7002      7004      6999      7002      7005      7000      6999      7001
      7000      6999      7002      7001      6999      7002      7002      7005      7006
      7002      7005      7007      7002      7005      7008      7003      7002      7004
      7003      7002      7005      7004      7002      7005      7005      7008      7009
      7005      7008      7010      7005      7008      7011      7006      7005      7007
      7006      7005      7008      7007      7005      7008      7008      7011      7012
      7008      7011      7013      7008      7011      7014      7009      7008      7010
      7009      7008      7011      7010      7008      7011      7011      7014      7015
      7011      7014      7016      7011      7014      7017      7012      7011      7013
      7012      7011      7014      7013      7011      7014      7014      7017      7018
      7014      7017      7019      7014      7017      7020      7015      7014      7016
      7015      7014      7017      7016      7014      7017      7017      7020      7021
      7017      7020      7022      7017      7020      7023      7018      7017      7019
      7018      7017      7020      7019      7017      7020      7020      7023      7024
      7020      7023      7025      7020      7023      7026      7021      7020      7022
      7021      7020      7023      7022      7020      7023      7023      7026      7027
      7023      7026      7028      7023      7026      7029      7024      7023      7025
      7024      7023      7026      7025      7023      7026      7026      7029      7030
      7026      7029      7031      7026      7029      7032      7027      7026      7028
      7027      7026      7029      7028      7026      7029      7030      7029      7031
      7030      7029      7032      7031      7029      7032      7033      7034      7035
      7033      7034      7036      7033      7034      7049      7033      7037      7038
      7033      7037      7039      7033      7037      7040      7033      7041      7042
      7033      7041      7043      7033      7041      7044      7033      7045      7046
      7033      7045      7047      7033      7045      7048      7034      7033      7037
      7034      7033      7041      7034      7033      7045      7034      7049      7050
      7034      7049      7051      7034      7049      7055      7035      7034      7036
      7035      7034      7049      7036      7034      7049      7037      7033      7041
      7037      7033      7045      7038      7037      7039      7038      7037      7040
      7039      7037      7040      7041      7033      7045      7042      7041      7043
      7042      7041      7044      7043      7041      7044      7046      7045      7047
      7046      7045      7048      7047      7045      7048      7049      7055      7052
      7050      7049      7051      7050      7049      7055      7051      7049      7055
      7052      7056      7057      7053      7052      7054      7053      7052      7055
      7053      7052      7056      7054      7052      7055      7054      7052      7056
      7055      7052      7056      7056      7057      7058      7056      7057      7059
      7056      7057      7060      7057      7060      7061      7057      7060      7062
      7057      7060      7068      7058      7057      7059      7058      7057      7060
      7059      7057      7060      7060      7062      7063      7060      7068      7069
      7060      7068      7070      7060      7068      7071      7061      7060      7062
      7061      7060      7068      7062      7060      7068      7062      7063      7064
      7062      7063      7065      7063      7065      7066      7063      7065      7067
      7063      7065      7077      7064      7063      7065      7065      7077      7078
      7065      7077      7079      7065      7077      7080      7066      7065      7067
      7066      7065      7077      7067      7065      7077      7068      7071      7072
      7069      7068      7070      7069      7068      7071      7070      7068      7071
      7071      7072      7073      7071      7072      7074      7072      7074      7075
      7072      7074      7076      7072      7074      7124      7073      7072      7074
      7074      7124      7125      7074      7124      7126      7074      7124      7127
      7075      7074      7076      7075      7074      7124      7076      7074      7124
      7077      7080      7081      7077      7080      7082      7077      7080      7083
      7078      7077      7079      7078      7077      7080      7079      7077      7080
      7080      7083      7084      7080      7083      7085      7080      7083      7086
      7081      7080      7082      7081      7080      7083      7082      7080      7083
      7083      7086      7087      7083      7086      7088      7083      7086      7089
      7084      7083      7085      7084      7083      7086      7085      7083      7086
      7086      7089      7090      7086      7089      7091      7086      7089      7092
      7087      7086      7088      7087      7086      7089      7088      7086      7089
      7089      7092      7093      7089      7092      7094      7089      7092      7095
      7090      7089      7091      7090      7089      7092      7091      7089      7092
      7092      7095      7096      7092      7095      7097      7093      7092      7094
      7093      7092      7095      7094      7092      7095      7095      7097      7098
      7095      7097      7099      7096      7095      7097      7097      7099      7100
      7097      7099      7101      7097      7099      7102      7098      7097      7099
      7099      7102      7103      7099      7102      7104      7099      7102      7105
      7100      7099      7101      7100      7099      7102      7101      7099      7102
      7102      7105      7106      7102      7105      7107      7102      7105      7108
      7103      7102      7104      7103      7102      7105      7104      7102      7105
      7105      7108      7109      7105      7108      7110      7105      7108      7111
      7106      7105      7107      7106      7105      7108      7107      7105      7108
      7108      7111      7112      7108      7111      7113      7108      7111      7114
      7109      7108      7110      7109      7108      7111      7110      7108      7111
      7111      7114      7115      7111      7114      7116      7111      7114      7117
      7112      7111      7113      7112      7111      7114      7113      7111      7114
      7114      7117      7118      7114      7117      7119      7114      7117      7120
      7115      7114      7116      7115      7114      7117      7116      7114      7117
      7117      7120      7121      7117      7120      7122      7117      7120      7123
      7118      7117      7119      7118      7117      7120      7119      7117      7120
      7121      7120      7122      7121      7120      7123      7122      7120      7123
      7124      7127      7128      7124      7127      7129      7124      7127      7130
      7125      7124      7126      7125      7124      7127      7126      7124      7127
      7127      7130      7131      7127      7130      7132      7127      7130      7133
      7128      7127      7129      7128      7127      7130      7129      7127      7130
      7130      7133      7134      7130      7133      7135      7130      7133      7136
      7131      7130      7132      7131      7130      7133      7132      7130      7133
      7133      7136      7137      7133      7136      7138      7133      7136      7139
      7134      7133      7135      7134      7133      7136      7135      7133      7136
      7136      7139      7140      7136      7139      7141      7136      7139      7142
      7137      7136      7138      7137      7136      7139      7138      7136      7139
      7139      7142      7143      7139      7142      7144      7139      7142      7145
      7140      7139      7141      7140      7139      7142      7141      7139      7142
      7142      7145      7146      7142      7145      7147      7142      7145      7148
      7143      7142      7144      7143      7142      7145      7144      7142      7145
      7145      7148      7149      7145      7148      7150      7145      7148      7151
      7146      7145      7147      7146      7145      7148      7147      7145      7148
      7148      7151      7152      7148      7151      7153      7148      7151      7154
      7149      7148      7150      7149      7148      7151      7150      7148      7151
      7151      7154      7155      7151      7154      7156      7151      7154      7157
      7152      7151      7153      7152      7151      7154      7153      7151      7154
      7154      7157      7158      7154      7157      7159      7154      7157      7160
      7155      7154      7156      7155      7154      7157      7156      7154      7157
      7157      7160      7161      7157      7160      7162      7157      7160      7163
      7158      7157      7159      7158      7157      7160      7159      7157      7160
      7160      7163      7164      7160      7163      7165      7160      7163      7166
      7161      7160      7162      7161      7160      7163      7162      7160      7163
      7164      7163      7165      7164      7163      7166      7165      7163      7166
      7167      7171      7172      7167      7171      7173      7167      7171      7176
      7168      7167      7169      7168      7167      7170      7168      7167      7171
      7169      7167      7170      7169      7167      7171      7170      7167      7171
      7171      7173      7174      7171      7173      7175      7171      7176      7177
      7171      7176      7178      7171      7176      7182      7172      7171      7173
      7172      7171      7176      7173      7171      7176      7174      7173      7175
      7176      7182      7179      7177      7176      7178      7177      7176      7182
      7178      7176      7182      7179      7183      7184      7180      7179      7181
      7180      7179      7182      7180      7179      7183      7181      7179      7182
      7181      7179      7183      7182      7179      7183      7183      7184      7185
      7183      7184      7186      7183      7184      7187      7184      7187      7188
      7184      7187      7189      7184      7187      7195      7185      7184      7186
      7185      7184      7187      7186      7184      7187      7187      7189      7190
      7187      7195      7196      7187      7195      7197      7187      7195      7198
      7188      7187      7189      7188      7187      7195      7189      7187      7195
      7189      7190      7191      7189      7190      7192      7190      7192      7193
      7190      7192      7194      7190      7192      7204      7191      7190      7192
      7192      7204      7205      7192      7204      7206      7192      7204      7207
      7193      7192      7194      7193      7192      7204      7194      7192      7204
      7195      7198      7199      7196      7195      7197      7196      7195      7198
      7197      7195      7198      7198      7199      7200      7198      7199      7201
      7199      7201      7202      7199      7201      7203      7199      7201      7251
      7200      7199      7201      7201      7251      7252      7201      7251      7253
      7201      7251      7254      7202      7201      7203      7202      7201      7251
      7203      7201      7251      7204      7207      7208      7204      7207      7209
      7204      7207      7210      7205      7204      7206      7205      7204      7207
      7206      7204      7207      7207      7210      7211      7207      7210      7212
      7207      7210      7213      7208      7207      7209      7208      7207      7210
      7209      7207      7210      7210      7213      7214      7210      7213      7215
      7210      7213      7216      7211      7210      7212      7211      7210      7213
      7212      7210      7213      7213      7216      7217      7213      7216      7218
      7213      7216      7219      7214      7213      7215      7214      7213      7216
      7215      7213      7216      7216      7219      7220      7216      7219      7221
      7216      7219      7222      7217      7216      7218      7217      7216      7219
      7218      7216      7219      7219      7222      7223      7219      7222      7224
      7220      7219      7221      7220      7219      7222      7221      7219      7222
      7222      7224      7225      7222      7224      7226      7223      7222      7224
      7224      7226      7227      7224      7226      7228      7224      7226      7229
      7225      7224      7226      7226      7229      7230      7226      7229      7231
      7226      7229      7232      7227      7226      7228      7227      7226      7229
      7228      7226      7229      7229      7232      7233      7229      7232      7234
      7229      7232      7235      7230      7229      7231      7230      7229      7232
      7231      7229      7232      7232      7235      7236      7232      7235      7237
      7232      7235      7238      7233      7232      7234      7233      7232      7235
      7234      7232      7235      7235      7238      7239      7235      7238      7240
      7235      7238      7241      7236      7235      7237      7236      7235      7238
      7237      7235      7238      7238      7241      7242      7238      7241      7243
      7238      7241      7244      7239      7238      7240      7239      7238      7241
      7240      7238      7241      7241      7244      7245      7241      7244      7246
      7241      7244      7247      7242      7241      7243      7242      7241      7244
      7243      7241      7244      7244      7247      7248      7244      7247      7249
      7244      7247      7250      7245      7244      7246      7245      7244      7247
      7246      7244      7247      7248      7247      7249      7248      7247      7250
      7249      7247      7250      7251      7254      7255      7251      7254      7256
      7251      7254      7257      7252      7251      7253      7252      7251      7254
      7253      7251      7254      7254      7257      7258      7254      7257      7259
      7254      7257      7260      7255      7254      7256      7255      7254      7257
      7256      7254      7257      7257      7260      7261      7257      7260      7262
      7257      7260      7263      7258      7257      7259      7258      7257      7260
      7259      7257      7260      7260      7263      7264      7260      7263      7265
      7260      7263      7266      7261      7260      7262      7261      7260      7263
      7262      7260      7263      7263      7266      7267      7263      7266      7268
      7263      7266      7269      7264      7263      7265      7264      7263      7266
      7265      7263      7266      7266      7269      7270      7266      7269      7271
      7266      7269      7272      7267      7266      7268      7267      7266      7269
      7268      7266      7269      7269      7272      7273      7269      7272      7274
      7269      7272      7275      7270      7269      7271      7270      7269      7272
      7271      7269      7272      7272      7275      7276      7272      7275      7277
      7272      7275      7278      7273      7272      7274      7273      7272      7275
      7274      7272      7275      7275      7278      7279      7275      7278      7280
      7275      7278      7281      7276      7275      7277      7276      7275      7278
      7277      7275      7278      7278      7281      7282      7278      7281      7283
      7278      7281      7284      7279      7278      7280      7279      7278      7281
      7280      7278      7281      7281      7284      7285      7281      7284      7286
      7281      7284      7287      7282      7281      7283      7282      7281      7284
      7283      7281      7284      7284      7287      7288      7284      7287      7289
      7284      7287      7290      7285      7284      7286      7285      7284      7287
      7286      7284      7287      7287      7290      7291      7287      7290      7292
      7287      7290      7293      7288      7287      7289      7288      7287      7290
      7289      7287      7290      7291      7290      7292      7291      7290      7293
      7292      7290      7293      7294      7295      7296      7294      7295      7297
      7294      7295      7310      7294      7298      7299      7294      7298      7300
      7294      7298      7301      7294      7302      7303      7294      7302      7304
      7294      7302      7305      7294      7306      7307      7294      7306      7308
      7294      7306      7309      7295      7294      7298      7295      7294      7302
      7295      7294      7306      7295      7310      7311      7295      7310      7312
      7295      7310      7316      7296      7295      7297      7296      7295      7310
      7297      7295      7310      7298      7294      7302      7298      7294      7306
      7299      7298      7300      7299      7298      7301      7300      7298      7301
      7302      7294      7306      7303      7302      7304      7303      7302      7305
      7304      7302      7305      7307      7306      7308      7307      7306      7309
      7308      7306      7309      7310      7316      7313      7311      7310      7312
      7311      7310      7316      7312      7310      7316      7313      7317      7318
      7314      7313      7315      7314      7313      7316      7314      7313      7317
      7315      7313      7316      7315      7313      7317      7316      7313      7317
      7317      7318      7319      7317      7318      7320      7317      7318      7321
      7318      7321      7322      7318      7321      7323      7318      7321      7329
      7319      7318      7320      7319      7318      7321      7320      7318      7321
      7321      7323      7324      7321      7329      7330      7321      7329      7331
      7321      7329      7332      7322      7321      7323      7322      7321      7329
      7323      7321      7329      7323      7324      7325      7323      7324      7326
      7324      7326      7327      7324      7326      7328      7324      7326      7338
      7325      7324      7326      7326      7338      7339      7326      7338      7340
      7326      7338      7341      7327      7326      7328      7327      7326      7338
      7328      7326      7338      7329      7332      7333      7330      7329      7331
      7330      7329      7332      7331      7329      7332      7332      7333      7334
      7332      7333      7335      7333      7335      7336      7333      7335      7337
      7333      7335      7385      7334      7333      7335      7335      7385      7386
      7335      7385      7387      7335      7385      7388      7336      7335      7337
      7336      7335      7385      7337      7335      7385      7338      7341      7342
      7338      7341      7343      7338      7341      7344      7339      7338      7340
      7339      7338      7341      7340      7338      7341      7341      7344      7345
      7341      7344      7346      7341      7344      7347      7342      7341      7343
      7342      7341      7344      7343      7341      7344      7344      7347      7348
      7344      7347      7349      7344      7347      7350      7345      7344      7346
      7345      7344      7347      7346      7344      7347      7347      7350      7351
      7347      7350      7352      7347      7350      7353      7348      7347      7349
      7348      7347      7350      7349      7347      7350      7350      7353      7354
      7350      7353      7355      7350      7353      7356      7351      7350      7352
      7351      7350      7353      7352      7350      7353      7353      7356      7357
      7353      7356      7358      7354      7353      7355      7354      7353      7356
      7355      7353      7356      7356      7358      7359      7356      7358      7360
      7357      7356      7358      7358      7360      7361      7358      7360      7362
      7358      7360      7363      7359      7358      7360      7360      7363      7364
      7360      7363      7365      7360      7363      7366      7361      7360      7362
      7361      7360      7363      7362      7360      7363      7363      7366      7367
      7363      7366      7368      7363      7366      7369      7364      7363      7365
      7364      7363      7366      7365      7363      7366      7366      7369      7370
      7366      7369      7371      7366      7369      7372      7367      7366      7368
      7367      7366      7369      7368      7366      7369      7369      7372      7373
      7369      7372      7374      7369      7372      7375      7370      7369      7371
      7370      7369      7372      7371      7369      7372      7372      7375      7376
      7372      7375      7377      7372      7375      7378      7373      7372      7374
      7373      7372      7375      7374      7372      7375      7375      7378      7379
      7375      7378      7380      7375      7378      7381      7376      7375      7377
      7376      7375      7378      7377      7375      7378      7378      7381      7382
      7378      7381      7383      7378      7381      7384      7379      7378      7380
      7379      7378      7381      7380      7378      7381      7382      7381      7383
      7382      7381      7384      7383      7381      7384      7385      7388      7389
      7385      7388      7390      7385      7388      7391      7386      7385      7387
      7386      7385      7388      7387      7385      7388      7388      7391      7392
      7388      7391      7393      7388      7391      7394      7389      7388      7390
      7389      7388      7391      7390      7388      7391      7391      7394      7395
      7391      7394      7396      7391      7394      7397      7392      7391      7393
      7392      7391      7394      7393      7391      7394      7394      7397      7398
      7394      7397      7399      7394      7397      7400      7395      7394      7396
      7395      7394      7397      7396      7394      7397      7397      7400      7401
      7397      7400      7402      7397      7400      7403      7398      7397      7399
      7398      7397      7400      7399      7397      7400      7400      7403      7404
      7400      7403      7405      7400      7403      7406      7401      7400      7402
      7401      7400      7403      7402      7400      7403      7403      7406      7407
      7403      7406      7408      7403      7406      7409      7404      7403      7405
      7404      7403      7406      7405      7403      7406      7406      7409      7410
      7406      7409      7411      7406      7409      7412      7407      7406      7408
      7407      7406      7409      7408      7406      7409      7409      7412      7413
      7409      7412      7414      7409      7412      7415      7410      7409      7411
      7410      7409      7412      7411      7409      7412      7412      7415      7416
      7412      7415      7417      7412      7415      7418      7413      7412      7414
      7413      7412      7415      7414      7412      7415      7415      7418      7419
      7415      7418      7420      7415      7418      7421      7416      7415      7417
      7416      7415      7418      7417      7415      7418      7418      7421      7422
      7418      7421      7423      7418      7421      7424      7419      7418      7420
      7419      7418      7421      7420      7418      7421      7421      7424      7425
      7421      7424      7426      7421      7424      7427      7422      7421      7423
      7422      7421      7424      7423      7421      7424      7425      7424      7426
      7425      7424      7427      7426      7424      7427      7428      7429      7430
      7428      7429      7431      7428      7429      7444      7428      7432      7433
      7428      7432      7434      7428      7432      7435      7428      7436      7437
      7428      7436      7438      7428      7436      7439      7428      7440      7441
      7428      7440      7442      7428      7440      7443      7429      7428      7432
      7429      7428      7436      7429      7428      7440      7429      7444      7445
      7429      7444      7446      7429      7444      7450      7430      7429      7431
      7430      7429      7444      7431      7429      7444      7432      7428      7436
      7432      7428      7440      7433      7432      7434      7433      7432      7435
      7434      7432      7435      7436      7428      7440      7437      7436      7438
      7437      7436      7439      7438      7436      7439      7441      7440      7442
      7441      7440      7443      7442      7440      7443      7444      7450      7447
      7445      7444      7446      7445      7444      7450      7446      7444      7450
      7447      7451      7452      7448      7447      7449      7448      7447      7450
      7448      7447      7451      7449      7447      7450      7449      7447      7451
      7450      7447      7451      7451      7452      7453      7451      7452      7454
      7451      7452      7455      7452      7455      7456      7452      7455      7457
      7452      7455      7463      7453      7452      7454      7453      7452      7455
      7454      7452      7455      7455      7457      7458      7455      7463      7464
      7455      7463      7465      7455      7463      7466      7456      7455      7457
      7456      7455      7463      7457      7455      7463      7457      7458      7459
      7457      7458      7460      7458      7460      7461      7458      7460      7462
      7458      7460      7472      7459      7458      7460      7460      7472      7473
      7460      7472      7474      7460      7472      7475      7461      7460      7462
      7461      7460      7472      7462      7460      7472      7463      7466      7467
      7464      7463      7465      7464      7463      7466      7465      7463      7466
      7466      7467      7468      7466      7467      7469      7467      7469      7470
      7467      7469      7471      7467      7469      7519      7468      7467      7469
      7469      7519      7520      7469      7519      7521      7469      7519      7522
      7470      7469      7471      7470      7469      7519      7471      7469      7519
      7472      7475      7476      7472      7475      7477      7472      7475      7478
      7473      7472      7474      7473      7472      7475      7474      7472      7475
      7475      7478      7479      7475      7478      7480      7475      7478      7481
      7476      7475      7477      7476      7475      7478      7477      7475      7478
      7478      7481      7482      7478      7481      7483      7478      7481      7484
      7479      7478      7480      7479      7478      7481      7480      7478      7481
      7481      7484      7485      7481      7484      7486      7481      7484      7487
      7482      7481      7483      7482      7481      7484      7483      7481      7484
      7484      7487      7488      7484      7487      7489      7484      7487      7490
      7485      7484      7486      7485      7484      7487      7486      7484      7487
      7487      7490      7491      7487      7490      7492      7488      7487      7489
      7488      7487      7490      7489      7487      7490      7490      7492      7493
      7490      7492      7494      7491      7490      7492      7492      7494      7495
      7492      7494      7496      7492      7494      7497      7493      7492      7494
      7494      7497      7498      7494      7497      7499      7494      7497      7500
      7495      7494      7496      7495      7494      7497      7496      7494      7497
      7497      7500      7501      7497      7500      7502      7497      7500      7503
      7498      7497      7499      7498      7497      7500      7499      7497      7500
      7500      7503      7504      7500      7503      7505      7500      7503      7506
      7501      7500      7502      7501      7500      7503      7502      7500      7503
      7503      7506      7507      7503      7506      7508      7503      7506      7509
      7504      7503      7505      7504      7503      7506      7505      7503      7506
      7506      7509      7510      7506      7509      7511      7506      7509      7512
      7507      7506      7508      7507      7506      7509      7508      7506      7509
      7509      7512      7513      7509      7512      7514      7509      7512      7515
      7510      7509      7511      7510      7509      7512      7511      7509      7512
      7512      7515      7516      7512      7515      7517      7512      7515      7518
      7513      7512      7514      7513      7512      7515      7514      7512      7515
      7516      7515      7517      7516      7515      7518      7517      7515      7518
      7519      7522      7523      7519      7522      7524      7519      7522      7525
      7520      7519      7521      7520      7519      7522      7521      7519      7522
      7522      7525      7526      7522      7525      7527      7522      7525      7528
      7523      7522      7524      7523      7522      7525      7524      7522      7525
      7525      7528      7529      7525      7528      7530      7525      7528      7531
      7526      7525      7527      7526      7525      7528      7527      7525      7528
      7528      7531      7532      7528      7531      7533      7528      7531      7534
      7529      7528      7530      7529      7528      7531      7530      7528      7531
      7531      7534      7535      7531      7534      7536      7531      7534      7537
      7532      7531      7533      7532      7531      7534      7533      7531      7534
      7534      7537      7538      7534      7537      7539      7534      7537      7540
      7535      7534      7536      7535      7534      7537      7536      7534      7537
      7537      7540      7541      7537      7540      7542      7537      7540      7543
      7538      7537      7539      7538      7537      7540      7539      7537      7540
      7540      7543      7544      7540      7543      7545      7540      7543      7546
      7541      7540      7542      7541      7540      7543      7542      7540      7543
      7543      7546      7547      7543      7546      7548      7543      7546      7549
      7544      7543      7545      7544      7543      7546      7545      7543      7546
      7546      7549      7550      7546      7549      7551      7546      7549      7552
      7547      7546      7548      7547      7546      7549      7548      7546      7549
      7549      7552      7553      7549      7552      7554      7549      7552      7555
      7550      7549      7551      7550      7549      7552      7551      7549      7552
      7552      7555      7556      7552      7555      7557      7552      7555      7558
      7553      7552      7554      7553      7552      7555      7554      7552      7555
      7555      7558      7559      7555      7558      7560      7555      7558      7561
      7556      7555      7557      7556      7555      7558      7557      7555      7558
      7559      7558      7560      7559      7558      7561      7560      7558      7561
      7562      7566      7567      7562      7566      7568      7562      7566      7571
      7563      7562      7564      7563      7562      7565      7563      7562      7566
      7564      7562      7565      7564      7562      7566      7565      7562      7566
      7566      7568      7569      7566      7568      7570      7566      7571      7572
      7566      7571      7573      7566      7571      7577      7567      7566      7568
      7567      7566      7571      7568      7566      7571      7569      7568      7570
      7571      7577      7574      7572      7571      7573      7572      7571      7577
      7573      7571      7577      7574      7578      7579      7575      7574      7576
      7575      7574      7577      7575      7574      7578      7576      7574      7577
      7576      7574      7578      7577      7574      7578      7578      7579      7580
      7578      7579      7581      7578      7579      7582      7579      7582      7583
      7579      7582      7584      7579      7582      7590      7580      7579      7581
      7580      7579      7582      7581      7579      7582      7582      7584      7585
      7582      7590      7591      7582      7590      7592      7582      7590      7593
      7583      7582      7584      7583      7582      7590      7584      7582      7590
      7584      7585      7586      7584      7585      7587      7585      7587      7588
      7585      7587      7589      7585      7587      7599      7586      7585      7587
      7587      7599      7600      7587      7599      7601      7587      7599      7602
      7588      7587      7589      7588      7587      7599      7589      7587      7599
      7590      7593      7594      7591      7590      7592      7591      7590      7593
      7592      7590      7593      7593      7594      7595      7593      7594      7596
      7594      7596      7597      7594      7596      7598      7594      7596      7646
      7595      7594      7596      7596      7646      7647      7596      7646      7648
      7596      7646      7649      7597      7596      7598      7597      7596      7646
      7598      7596      7646      7599      7602      7603      7599      7602      7604
      7599      7602      7605      7600      7599      7601      7600      7599      7602
      7601      7599      7602      7602      7605      7606      7602      7605      7607
      7602      7605      7608      7603      7602      7604      7603      7602      7605
      7604      7602      7605      7605      7608      7609      7605      7608      7610
      7605      7608      7611      7606      7605      7607      7606      7605      7608
      7607      7605      7608      7608      7611      7612      7608      7611      7613
      7608      7611      7614      7609      7608      7610      7609      7608      7611
      7610      7608      7611      7611      7614      7615      7611      7614      7616
      7611      7614      7617      7612      7611      7613      7612      7611      7614
      7613      7611      7614      7614      7617      7618      7614      7617      7619
      7615      7614      7616      7615      7614      7617      7616      7614      7617
      7617      7619      7620      7617      7619      7621      7618      7617      7619
      7619      7621      7622      7619      7621      7623      7619      7621      7624
      7620      7619      7621      7621      7624      7625      7621      7624      7626
      7621      7624      7627      7622      7621      7623      7622      7621      7624
      7623      7621      7624      7624      7627      7628      7624      7627      7629
      7624      7627      7630      7625      7624      7626      7625      7624      7627
      7626      7624      7627      7627      7630      7631      7627      7630      7632
      7627      7630      7633      7628      7627      7629      7628      7627      7630
      7629      7627      7630      7630      7633      7634      7630      7633      7635
      7630      7633      7636      7631      7630      7632      7631      7630      7633
      7632      7630      7633      7633      7636      7637      7633      7636      7638
      7633      7636      7639      7634      7633      7635      7634      7633      7636
      7635      7633      7636      7636      7639      7640      7636      7639      7641
      7636      7639      7642      7637      7636      7638      7637      7636      7639
      7638      7636      7639      7639      7642      7643      7639      7642      7644
      7639      7642      7645      7640      7639      7641      7640      7639      7642
      7641      7639      7642      7643      7642      7644      7643      7642      7645
      7644      7642      7645      7646      7649      7650      7646      7649      7651
      7646      7649      7652      7647      7646      7648      7647      7646      7649
      7648      7646      7649      7649      7652      7653      7649      7652      7654
      7649      7652      7655      7650      7649      7651      7650      7649      7652
      7651      7649      7652      7652      7655      7656      7652      7655      7657
      7652      7655      7658      7653      7652      7654      7653      7652      7655
      7654      7652      7655      7655      7658      7659      7655      7658      7660
      7655      7658      7661      7656      7655      7657      7656      7655      7658
      7657      7655      7658      7658      7661      7662      7658      7661      7663
      7658      7661      7664      7659      7658      7660      7659      7658      7661
      7660      7658      7661      7661      7664      7665      7661      7664      7666
      7661      7664      7667      7662      7661      7663      7662      7661      7664
      7663      7661      7664      7664      7667      7668      7664      7667      7669
      7664      7667      7670      7665      7664      7666      7665      7664      7667
      7666      7664      7667      7667      7670      7671      7667      7670      7672
      7667      7670      7673      7668      7667      7669      7668      7667      7670
      7669      7667      7670      7670      7673      7674      7670      7673      7675
      7670      7673      7676      7671      7670      7672      7671      7670      7673
      7672      7670      7673      7673      7676      7677      7673      7676      7678
      7673      7676      7679      7674      7673      7675      7674      7673      7676
      7675      7673      7676      7676      7679      7680      7676      7679      7681
      7676      7679      7682      7677      7676      7678      7677      7676      7679
      7678      7676      7679      7679      7682      7683      7679      7682      7684
      7679      7682      7685      7680      7679      7681      7680      7679      7682
      7681      7679      7682      7682      7685      7686      7682      7685      7687
      7682      7685      7688      7683      7682      7684      7683      7682      7685
      7684      7682      7685      7686      7685      7687      7686      7685      7688
      7687      7685      7688      7689      7690      7691      7689      7690      7692
      7689      7690      7705      7689      7693      7694      7689      7693      7695
      7689      7693      7696      7689      7697      7698      7689      7697      7699
      7689      7697      7700      7689      7701      7702      7689      7701      7703
      7689      7701      7704      7690      7689      7693      7690      7689      7697
      7690      7689      7701      7690      7705      7706      7690      7705      7707
      7690      7705      7711      7691      7690      7692      7691      7690      7705
      7692      7690      7705      7693      7689      7697      7693      7689      7701
      7694      7693      7695      7694      7693      7696      7695      7693      7696
      7697      7689      7701      7698      7697      7699      7698      7697      7700
      7699      7697      7700      7702      7701      7703      7702      7701      7704
      7703      7701      7704      7705      7711      7708      7706      7705      7707
      7706      7705      7711      7707      7705      7711      7708      7712      7713
      7709      7708      7710      7709      7708      7711      7709      7708      7712
      7710      7708      7711      7710      7708      7712      7711      7708      7712
      7712      7713      7714      7712      7713      7715      7712      7713      7716
      7713      7716      7717      7713      7716      7718      7713      7716      7724
      7714      7713      7715      7714      7713      7716      7715      7713      7716
      7716      7718      7719      7716      7724      7725      7716      7724      7726
      7716      7724      7727      7717      7716      7718      7717      7716      7724
      7718      7716      7724      7718      7719      7720      7718      7719      7721
      7719      7721      7722      7719      7721      7723      7719      7721      7733
      7720      7719      7721      7721      7733      7734      7721      7733      7735
      7721      7733      7736      7722      7721      7723      7722      7721      7733
      7723      7721      7733      7724      7727      7728      7725      7724      7726
      7725      7724      7727      7726      7724      7727      7727      7728      7729
      7727      7728      7730      7728      7730      7731      7728      7730      7732
      7728      7730      7780      7729      7728      7730      7730      7780      7781
      7730      7780      7782      7730      7780      7783      7731      7730      7732
      7731      7730      7780      7732      7730      7780      7733      7736      7737
      7733      7736      7738      7733      7736      7739      7734      7733      7735
      7734      7733      7736      7735      7733      7736      7736      7739      7740
      7736      7739      7741      7736      7739      7742      7737      7736      7738
      7737      7736      7739      7738      7736      7739      7739      7742      7743
      7739      7742      7744      7739      7742      7745      7740      7739      7741
      7740      7739      7742      7741      7739      7742      7742      7745      7746
      7742      7745      7747      7742      7745      7748      7743      7742      7744
      7743      7742      7745      7744      7742      7745      7745      7748      7749
      7745      7748      7750      7745      7748      7751      7746      7745      7747
      7746      7745      7748      7747      7745      7748      7748      7751      7752
      7748      7751      7753      7749      7748      7750      7749      7748      7751
      7750      7748      7751      7751      7753      7754      7751      7753      7755
      7752      7751      7753      7753      7755      7756      7753      7755      7757
      7753      7755      7758      7754      7753      7755      7755      7758      7759
      7755      7758      7760      7755      7758      7761      7756      7755      7757
      7756      7755      7758      7757      7755      7758      7758      7761      7762
      7758      7761      7763      7758      7761      7764      7759      7758      7760
      7759      7758      7761      7760      7758      7761      7761      7764      7765
      7761      7764      7766      7761      7764      7767      7762      7761      7763
      7762      7761      7764      7763      7761      7764      7764      7767      7768
      7764      7767      7769      7764      7767      7770      7765      7764      7766
      7765      7764      7767      7766      7764      7767      7767      7770      7771
      7767      7770      7772      7767      7770      7773      7768      7767      7769
      7768      7767      7770      7769      7767      7770      7770      7773      7774
      7770      7773      7775      7770      7773      7776      7771      7770      7772
      7771      7770      7773      7772      7770      7773      7773      7776      7777
      7773      7776      7778      7773      7776      7779      7774      7773      7775
      7774      7773      7776      7775      7773      7776      7777      7776      7778
      7777      7776      7779      7778      7776      7779      7780      7783      7784
      7780      7783      7785      7780      7783      7786      7781      7780      7782
      7781      7780      7783      7782      7780      7783      7783      7786      7787
      7783      7786      7788      7783      7786      7789      7784      7783      7785
      7784      7783      7786      7785      7783      7786      7786      7789      7790
      7786      7789      7791      7786      7789      7792      7787      7786      7788
      7787      7786      7789      7788      7786      7789      7789      7792      7793
      7789      7792      7794      7789      7792      7795      7790      7789      7791
      7790      7789      7792      7791      7789      7792      7792      7795      7796
      7792      7795      7797      7792      7795      7798      7793      7792      7794
      7793      7792      7795      7794      7792      7795      7795      7798      7799
      7795      7798      7800      7795      7798      7801      7796      7795      7797
      7796      7795      7798      7797      7795      7798      7798      7801      7802
      7798      7801      7803      7798      7801      7804      7799      7798      7800
      7799      7798      7801      7800      7798      7801      7801      7804      7805
      7801      7804      7806      7801      7804      7807      7802      7801      7803
      7802      7801      7804      7803      7801      7804      7804      7807      7808
      7804      7807      7809      7804      7807      7810      7805      7804      7806
      7805      7804      7807      7806      7804      7807      7807      7810      7811
      7807      7810      7812      7807      7810      7813      7808      7807      7809
      7808      7807      7810      7809      7807      7810      7810      7813      7814
      7810      7813      7815      7810      7813      7816      7811      7810      7812
      7811      7810      7813      7812      7810      7813      7813      7816      7817
      7813      7816      7818      7813      7816      7819      7814      7813      7815
      7814      7813      7816      7815      7813      7816      7816      7819      7820
      7816      7819      7821      7816      7819      7822      7817      7816      7818
      7817      7816      7819      7818      7816      7819      7820      7819      7821
      7820      7819      7822      7821      7819      7822      7823      7824      7825
      7823      7824      7826      7823      7824      7839      7823      7827      7828
      7823      7827      7829      7823      7827      7830      7823      7831      7832
      7823      7831      7833      7823      7831      7834      7823      7835      7836
      7823      7835      7837      7823      7835      7838      7824      7823      7827
      7824      7823      7831      7824      7823      7835      7824      7839      7840
      7824      7839      7841      7824      7839      7845      7825      7824      7826
      7825      7824      7839      7826      7824      7839      7827      7823      7831
      7827      7823      7835      7828      7827      7829      7828      7827      7830
      7829      7827      7830      7831      7823      7835      7832      7831      7833
      7832      7831      7834      7833      7831      7834      7836      7835      7837
      7836      7835      7838      7837      7835      7838      7839      7845      7842
      7840      7839      7841      7840      7839      7845      7841      7839      7845
      7842      7846      7847      7843      7842      7844      7843      7842      7845
      7843      7842      7846      7844      7842      7845      7844      7842      7846
      7845      7842      7846      7846      7847      7848      7846      7847      7849
      7846      7847      7850      7847      7850      7851      7847      7850      7852
      7847      7850      7858      7848      7847      7849      7848      7847      7850
      7849      7847      7850      7850      7852      7853      7850      7858      7859
      7850      7858      7860      7850      7858      7861      7851      7850      7852
      7851      7850      7858      7852      7850      7858      7852      7853      7854
      7852      7853      7855      7853      7855      7856      7853      7855      7857
      7853      7855      7867      7854      7853      7855      7855      7867      7868
      7855      7867      7869      7855      7867      7870      7856      7855      7857
      7856      7855      7867      7857      7855      7867      7858      7861      7862
      7859      7858      7860      7859      7858      7861      7860      7858      7861
      7861      7862      7863      7861      7862      7864      7862      7864      7865
      7862      7864      7866      7862      7864      7914      7863      7862      7864
      7864      7914      7915      7864      7914      7916      7864      7914      7917
      7865      7864      7866      7865      7864      7914      7866      7864      7914
      7867      7870      7871      7867      7870      7872      7867      7870      7873
      7868      7867      7869      7868      7867      7870      7869      7867      7870
      7870      7873      7874      7870      7873      7875      7870      7873      7876
      7871      7870      7872      7871      7870      7873      7872      7870      7873
      7873      7876      7877      7873      7876      7878      7873      7876      7879
      7874      7873      7875      7874      7873      7876      7875      7873      7876
      7876      7879      7880      7876      7879      7881      7876      7879      7882
      7877      7876      7878      7877      7876      7879      7878      7876      7879
      7879      7882      7883      7879      7882      7884      7879      7882      7885
      7880      7879      7881      7880      7879      7882      7881      7879      7882
      7882      7885      7886      7882      7885      7887      7883      7882      7884
      7883      7882      7885      7884      7882      7885      7885      7887      7888
      7885      7887      7889      7886      7885      7887      7887      7889      7890
      7887      7889      7891      7887      7889      7892      7888      7887      7889
      7889      7892      7893      7889      7892      7894      7889      7892      7895
      7890      7889      7891      7890      7889      7892      7891      7889      7892
      7892      7895      7896      7892      7895      7897      7892      7895      7898
      7893      7892      7894      7893      7892      7895      7894      7892      7895
      7895      7898      7899      7895      7898      7900      7895      7898      7901
      7896      7895      7897      7896      7895      7898      7897      7895      7898
      7898      7901      7902      7898      7901      7903      7898      7901      7904
      7899      7898      7900      7899      7898      7901      7900      7898      7901
      7901      7904      7905      7901      7904      7906      7901      7904      7907
      7902      7901      7903      7902      7901      7904      7903      7901      7904
      7904      7907      7908      7904      7907      7909      7904      7907      7910
      7905      7904      7906      7905      7904      7907      7906      7904      7907
      7907      7910      7911      7907      7910      7912      7907      7910      7913
      7908      7907      7909      7908      7907      7910      7909      7907      7910
      7911      7910      7912      7911      7910      7913      7912      7910      7913
      7914      7917      7918      7914      7917      7919      7914      7917      7920
      7915      7914      7916      7915      7914      7917      7916      7914      7917
      7917      7920      7921      7917      7920      7922      7917      7920      7923
      7918      7917      7919      7918      7917      7920      7919      7917      7920
      7920      7923      7924      7920      7923      7925      7920      7923      7926
      7921      7920      7922      7921      7920      7923      7922      7920      7923
      7923      7926      7927      7923      7926      7928      7923      7926      7929
      7924      7923      7925      7924      7923      7926      7925      7923      7926
      7926      7929      7930      7926      7929      7931      7926      7929      7932
      7927      7926      7928      7927      7926      7929      7928      7926      7929
      7929      7932      7933      7929      7932      7934      7929      7932      7935
      7930      7929      7931      7930      7929      7932      7931      7929      7932
      7932      7935      7936      7932      7935      7937      7932      7935      7938
      7933      7932      7934      7933      7932      7935      7934      7932      7935
      7935      7938      7939      7935      7938      7940      7935      7938      7941
      7936      7935      7937      7936      7935      7938      7937      7935      7938
      7938      7941      7942      7938      7941      7943      7938      7941      7944
      7939      7938      7940      7939      7938      7941      7940      7938      7941
      7941      7944      7945      7941      7944      7946      7941      7944      7947
      7942      7941      7943      7942      7941      7944      7943      7941      7944
      7944      7947      7948      7944      7947      7949      7944      7947      7950
      7945      7944      7946      7945      7944      7947      7946      7944      7947
      7947      7950      7951      7947      7950      7952      7947      7950      7953
      7948      7947      7949      7948      7947      7950      7949      7947      7950
      7950      7953      7954      7950      7953      7955      7950      7953      7956
      7951      7950      7952      7951      7950      7953      7952      7950      7953
      7954      7953      7955      7954      7953      7956      7955      7953      7956
      7957      7958      7959      7957      7958      7960      7957      7958      7973
      7957      7961      7962      7957      7961      7963      7957      7961      7964
      7957      7965      7966      7957      7965      7967      7957      7965      7968
      7957      7969      7970      7957      7969      7971      7957      7969      7972
      7958      7957      7961      7958      7957      7965      7958      7957      7969
      7958      7973      7974      7958      7973      7975      7958      7973      7979
      7959      7958      7960      7959      7958      7973      7960      7958      7973
      7961      7957      7965      7961      7957      7969      7962      7961      7963
      7962      7961      7964      7963      7961      7964      7965      7957      7969
      7966      7965      7967      7966      7965      7968      7967      7965      7968
      7970      7969      7971      7970      7969      7972      7971      7969      7972
      7973      7979      7976      7974      7973      7975      7974      7973      7979
      7975      7973      7979      7976      7980      7981      7977      7976      7978
      7977      7976      7979      7977      7976      7980      7978      7976      7979
      7978      7976      7980      7979      7976      7980      7980      7981      7982
      7980      7981      7983      7980      7981      7984      7981      7984      7985
      7981      7984      7986      7981      7984      7992      7982      7981      7983
      7982      7981      7984      7983      7981      7984      7984      7986      7987
      7984      7992      7993      7984      7992      7994      7984      7992      7995
      7985      7984      7986      7985      7984      7992      7986      7984      7992
      7986      7987      7988      7986      7987      7989      7987      7989      7990
      7987      7989      7991      7987      7989      8001      7988      7987      7989
      7989      8001      8002      7989      8001      8003      7989      8001      8004
      7990      7989      7991      7990      7989      8001      7991      7989      8001
      7992      7995      7996      7993      7992      7994      7993      7992      7995
      7994      7992      7995      7995      7996      7997      7995      7996      7998
      7996      7998      7999      7996      7998      8000      7996      7998      8048
      7997      7996      7998      7998      8048      8049      7998      8048      8050
      7998      8048      8051      7999      7998      8000      7999      7998      8048
      8000      7998      8048      8001      8004      8005      8001      8004      8006
      8001      8004      8007      8002      8001      8003      8002      8001      8004
      8003      8001      8004      8004      8007      8008      8004      8007      8009
      8004      8007      8010      8005      8004      8006      8005      8004      8007
      8006      8004      8007      8007      8010      8011      8007      8010      8012
      8007      8010      8013      8008      8007      8009      8008      8007      8010
      8009      8007      8010      8010      8013      8014      8010      8013      8015
      8010      8013      8016      8011      8010      8012      8011      8010      8013
      8012      8010      8013      8013      8016      8017      8013      8016      8018
      8013      8016      8019      8014      8013      8015      8014      8013      8016
      8015      8013      8016      8016      8019      8020      8016      8019      8021
      8017      8016      8018      8017      8016      8019      8018      8016      8019
      8019      8021      8022      8019      8021      8023      8020      8019      8021
      8021      8023      8024      8021      8023      8025      8021      8023      8026
      8022      8021      8023      8023      8026      8027      8023      8026      8028
      8023      8026      8029      8024      8023      8025      8024      8023      8026
      8025      8023      8026      8026      8029      8030      8026      8029      8031
      8026      8029      8032      8027      8026      8028      8027      8026      8029
      8028      8026      8029      8029      8032      8033      8029      8032      8034
      8029      8032      8035      8030      8029      8031      8030      8029      8032
      8031      8029      8032      8032      8035      8036      8032      8035      8037
      8032      8035      8038      8033      8032      8034      8033      8032      8035
      8034      8032      8035      8035      8038      8039      8035      8038      8040
      8035      8038      8041      8036      8035      8037      8036      8035      8038
      8037      8035      8038      8038      8041      8042      8038      8041      8043
      8038      8041      8044      8039      8038      8040      8039      8038      8041
      8040      8038      8041      8041      8044      8045      8041      8044      8046
      8041      8044      8047      8042      8041      8043      8042      8041      8044
      8043      8041      8044      8045      8044      8046      8045      8044      8047
      8046      8044      8047      8048      8051      8052      8048      8051      8053
      8048      8051      8054      8049      8048      8050      8049      8048      8051
      8050      8048      8051      8051      8054      8055      8051      8054      8056
      8051      8054      8057      8052      8051      8053      8052      8051      8054
      8053      8051      8054      8054      8057      8058      8054      8057      8059
      8054      8057      8060      8055      8054      8056      8055      8054      8057
      8056      8054      8057      8057      8060      8061      8057      8060      8062
      8057      8060      8063      8058      8057      8059      8058      8057      8060
      8059      8057      8060      8060      8063      8064      8060      8063      8065
      8060      8063      8066      8061      8060      8062      8061      8060      8063
      8062      8060      8063      8063      8066      8067      8063      8066      8068
      8063      8066      8069      8064      8063      8065      8064      8063      8066
      8065      8063      8066      8066      8069      8070      8066      8069      8071
      8066      8069      8072      8067      8066      8068      8067      8066      8069
      8068      8066      8069      8069      8072      8073      8069      8072      8074
      8069      8072      8075      8070      8069      8071      8070      8069      8072
      8071      8069      8072      8072      8075      8076      8072      8075      8077
      8072      8075      8078      8073      8072      8074      8073      8072      8075
      8074      8072      8075      8075      8078      8079      8075      8078      8080
      8075      8078      8081      8076      8075      8077      8076      8075      8078
      8077      8075      8078      8078      8081      8082      8078      8081      8083
      8078      8081      8084      8079      8078      8080      8079      8078      8081
      8080      8078      8081      8081      8084      8085      8081      8084      8086
      8081      8084      8087      8082      8081      8083      8082      8081      8084
      8083      8081      8084      8084      8087      8088      8084      8087      8089
      8084      8087      8090      8085      8084      8086      8085      8084      8087
      8086      8084      8087      8088      8087      8089      8088      8087      8090
      8089      8087      8090      8091      8092      8093      8091      8092      8094
      8091      8092      8107      8091      8095      8096      8091      8095      8097
      8091      8095      8098      8091      8099      8100      8091      8099      8101
      8091      8099      8102      8091      8103      8104      8091      8103      8105
      8091      8103      8106      8092      8091      8095      8092      8091      8099
      8092      8091      8103      8092      8107      8108      8092      8107      8109
      8092      8107      8113      8093      8092      8094      8093      8092      8107
      8094      8092      8107      8095      8091      8099      8095      8091      8103
      8096      8095      8097      8096      8095      8098      8097      8095      8098
      8099      8091      8103      8100      8099      8101      8100      8099      8102
      8101      8099      8102      8104      8103      8105      8104      8103      8106
      8105      8103      8106      8107      8113      8110      8108      8107      8109
      8108      8107      8113      8109      8107      8113      8110      8114      8115
      8111      8110      8112      8111      8110      8113      8111      8110      8114
      8112      8110      8113      8112      8110      8114      8113      8110      8114
      8114      8115      8116      8114      8115      8117      8114      8115      8118
      8115      8118      8119      8115      8118      8120      8115      8118      8126
      8116      8115      8117      8116      8115      8118      8117      8115      8118
      8118      8120      8121      8118      8126      8127      8118      8126      8128
      8118      8126      8129      8119      8118      8120      8119      8118      8126
      8120      8118      8126      8120      8121      8122      8120      8121      8123
      8121      8123      8124      8121      8123      8125      8121      8123      8135
      8122      8121      8123      8123      8135      8136      8123      8135      8137
      8123      8135      8138      8124      8123      8125      8124      8123      8135
      8125      8123      8135      8126      8129      8130      8127      8126      8128
      8127      8126      8129      8128      8126      8129      8129      8130      8131
      8129      8130      8132      8130      8132      8133      8130      8132      8134
      8130      8132      8182      8131      8130      8132      8132      8182      8183
      8132      8182      8184      8132      8182      8185      8133      8132      8134
      8133      8132      8182      8134      8132      8182      8135      8138      8139
      8135      8138      8140      8135      8138      8141      8136      8135      8137
      8136      8135      8138      8137      8135      8138      8138      8141      8142
      8138      8141      8143      8138      8141      8144      8139      8138      8140
      8139      8138      8141      8140      8138      8141      8141      8144      8145
      8141      8144      8146      8141      8144      8147      8142      8141      8143
      8142      8141      8144      8143      8141      8144      8144      8147      8148
      8144      8147      8149      8144      8147      8150      8145      8144      8146
      8145      8144      8147      8146      8144      8147      8147      8150      8151
      8147      8150      8152      8147      8150      8153      8148      8147      8149
      8148      8147      8150      8149      8147      8150      8150      8153      8154
      8150      8153      8155      8151      8150      8152      8151      8150      8153
      8152      8150      8153      8153      8155      8156      8153      8155      8157
      8154      8153      8155      8155      8157      8158      8155      8157      8159
      8155      8157      8160      8156      8155      8157      8157      8160      8161
      8157      8160      8162      8157      8160      8163      8158      8157      8159
      8158      8157      8160      8159      8157      8160      8160      8163      8164
      8160      8163      8165      8160      8163      8166      8161      8160      8162
      8161      8160      8163      8162      8160      8163      8163      8166      8167
      8163      8166      8168      8163      8166      8169      8164      8163      8165
      8164      8163      8166      8165      8163      8166      8166      8169      8170
      8166      8169      8171      8166      8169      8172      8167      8166      8168
      8167      8166      8169      8168      8166      8169      8169      8172      8173
      8169      8172      8174      8169      8172      8175      8170      8169      8171
      8170      8169      8172      8171      8169      8172      8172      8175      8176
      8172      8175      8177      8172      8175      8178      8173      8172      8174
      8173      8172      8175      8174      8172      8175      8175      8178      8179
      8175      8178      8180      8175      8178      8181      8176      8175      8177
      8176      8175      8178      8177      8175      8178      8179      8178      8180
      8179      8178      8181      8180      8178      8181      8182      8185      8186
      8182      8185      8187      8182      8185      8188      8183      8182      8184
      8183      8182      8185      8184      8182      8185      8185      8188      8189
      8185      8188      8190      8185      8188      8191      8186      8185      8187
      8186      8185      8188      8187      8185      8188      8188      8191      8192
      8188      8191      8193      8188      8191      8194      8189      8188      8190
      8189      8188      8191      8190      8188      8191      8191      8194      8195
      8191      8194      8196      8191      8194      8197      8192      8191      8193
      8192      8191      8194      8193      8191      8194      8194      8197      8198
      8194      8197      8199      8194      8197      8200      8195      8194      8196
      8195      8194      8197      8196      8194      8197      8197      8200      8201
      8197      8200      8202      8197      8200      8203      8198      8197      8199
      8198      8197      8200      8199      8197      8200      8200      8203      8204
      8200      8203      8205      8200      8203      8206      8201      8200      8202
      8201      8200      8203      8202      8200      8203      8203      8206      8207
      8203      8206      8208      8203      8206      8209      8204      8203      8205
      8204      8203      8206      8205      8203      8206      8206      8209      8210
      8206      8209      8211      8206      8209      8212      8207      8206      8208
      8207      8206      8209      8208      8206      8209      8209      8212      8213
      8209      8212      8214      8209      8212      8215      8210      8209      8211
      8210      8209      8212      8211      8209      8212      8212      8215      8216
      8212      8215      8217      8212      8215      8218      8213      8212      8214
      8213      8212      8215      8214      8212      8215      8215      8218      8219
      8215      8218      8220      8215      8218      8221      8216      8215      8217
      8216      8215      8218      8217      8215      8218      8218      8221      8222
      8218      8221      8223      8218      8221      8224      8219      8218      8220
      8219      8218      8221      8220      8218      8221      8222      8221      8223
      8222      8221      8224      8223      8221      8224      8225      8226      8227
      8225      8226      8228      8225      8226      8241      8225      8229      8230
      8225      8229      8231      8225      8229      8232      8225      8233      8234
      8225      8233      8235      8225      8233      8236      8225      8237      8238
      8225      8237      8239      8225      8237      8240      8226      8225      8229
      8226      8225      8233      8226      8225      8237      8226      8241      8242
      8226      8241      8243      8226      8241      8247      8227      8226      8228
      8227      8226      8241      8228      8226      8241      8229      8225      8233
      8229      8225      8237      8230      8229      8231      8230      8229      8232
      8231      8229      8232      8233      8225      8237      8234      8233      8235
      8234      8233      8236      8235      8233      8236      8238      8237      8239
      8238      8237      8240      8239      8237      8240      8241      8247      8244
      8242      8241      8243      8242      8241      8247      8243      8241      8247
      8244      8248      8249      8245      8244      8246      8245      8244      8247
      8245      8244      8248      8246      8244      8247      8246      8244      8248
      8247      8244      8248      8248      8249      8250      8248      8249      8251
      8248      8249      8252      8249      8252      8253      8249      8252      8254
      8249      8252      8260      8250      8249      8251      8250      8249      8252
      8251      8249      8252      8252      8254      8255      8252      8260      8261
      8252      8260      8262      8252      8260      8263      8253      8252      8254
      8253      8252      8260      8254      8252      8260      8254      8255      8256
      8254      8255      8257      8255      8257      8258      8255      8257      8259
      8255      8257      8269      8256      8255      8257      8257      8269      8270
      8257      8269      8271      8257      8269      8272      8258      8257      8259
      8258      8257      8269      8259      8257      8269      8260      8263      8264
      8261      8260      8262      8261      8260      8263      8262      8260      8263
      8263      8264      8265      8263      8264      8266      8264      8266      8267
      8264      8266      8268      8264      8266      8316      8265      8264      8266
      8266      8316      8317      8266      8316      8318      8266      8316      8319
      8267      8266      8268      8267      8266      8316      8268      8266      8316
      8269      8272      8273      8269      8272      8274      8269      8272      8275
      8270      8269      8271      8270      8269      8272      8271      8269      8272
      8272      8275      8276      8272      8275      8277      8272      8275      8278
      8273      8272      8274      8273      8272      8275      8274      8272      8275
      8275      8278      8279      8275      8278      8280      8275      8278      8281
      8276      8275      8277      8276      8275      8278      8277      8275      8278
      8278      8281      8282      8278      8281      8283      8278      8281      8284
      8279      8278      8280      8279      8278      8281      8280      8278      8281
      8281      8284      8285      8281      8284      8286      8281      8284      8287
      8282      8281      8283      8282      8281      8284      8283      8281      8284
      8284      8287      8288      8284      8287      8289      8285      8284      8286
      8285      8284      8287      8286      8284      8287      8287      8289      8290
      8287      8289      8291      8288      8287      8289      8289      8291      8292
      8289      8291      8293      8289      8291      8294      8290      8289      8291
      8291      8294      8295      8291      8294      8296      8291      8294      8297
      8292      8291      8293      8292      8291      8294      8293      8291      8294
      8294      8297      8298      8294      8297      8299      8294      8297      8300
      8295      8294      8296      8295      8294      8297      8296      8294      8297
      8297      8300      8301      8297      8300      8302      8297      8300      8303
      8298      8297      8299      8298      8297      8300      8299      8297      8300
      8300      8303      8304      8300      8303      8305      8300      8303      8306
      8301      8300      8302      8301      8300      8303      8302      8300      8303
      8303      8306      8307      8303      8306      8308      8303      8306      8309
      8304      8303      8305      8304      8303      8306      8305      8303      8306
      8306      8309      8310      8306      8309      8311      8306      8309      8312
      8307      8306      8308      8307      8306      8309      8308      8306      8309
      8309      8312      8313      8309      8312      8314      8309      8312      8315
      8310      8309      8311      8310      8309      8312      8311      8309      8312
      8313      8312      8314      8313      8312      8315      8314      8312      8315
      8316      8319      8320      8316      8319      8321      8316      8319      8322
      8317      8316      8318      8317      8316      8319      8318      8316      8319
      8319      8322      8323      8319      8322      8324      8319      8322      8325
      8320      8319      8321      8320      8319      8322      8321      8319      8322
      8322      8325      8326      8322      8325      8327      8322      8325      8328
      8323      8322      8324      8323      8322      8325      8324      8322      8325
      8325      8328      8329      8325      8328      8330      8325      8328      8331
      8326      8325      8327      8326      8325      8328      8327      8325      8328
      8328      8331      8332      8328      8331      8333      8328      8331      8334
      8329      8328      8330      8329      8328      8331      8330      8328      8331
      8331      8334      8335      8331      8334      8336      8331      8334      8337
      8332      8331      8333      8332      8331      8334      8333      8331      8334
      8334      8337      8338      8334      8337      8339      8334      8337      8340
      8335      8334      8336      8335      8334      8337      8336      8334      8337
      8337      8340      8341      8337      8340      8342      8337      8340      8343
      8338      8337      8339      8338      8337      8340      8339      8337      8340
      8340      8343      8344      8340      8343      8345      8340      8343      8346
      8341      8340      8342      8341      8340      8343      8342      8340      8343
      8343      8346      8347      8343      8346      8348      8343      8346      8349
      8344      8343      8345      8344      8343      8346      8345      8343      8346
      8346      8349      8350      8346      8349      8351      8346      8349      8352
      8347      8346      8348      8347      8346      8349      8348      8346      8349
      8349      8352      8353      8349      8352      8354      8349      8352      8355
      8350      8349      8351      8350      8349      8352      8351      8349      8352
      8352      8355      8356      8352      8355      8357      8352      8355      8358
      8353      8352      8354      8353      8352      8355      8354      8352      8355
      8356      8355      8357      8356      8355      8358      8357      8355      8358
      8359      8363      8364      8359      8363      8365      8359      8363      8368
      8360      8359      8361      8360      8359      8362      8360      8359      8363
      8361      8359      8362      8361      8359      8363      8362      8359      8363
      8363      8365      8366      8363      8365      8367      8363      8368      8369
      8363      8368      8370      8363      8368      8374      8364      8363      8365
      8364      8363      8368      8365      8363      8368      8366      8365      8367
      8368      8374      8371      8369      8368      8370      8369      8368      8374
      8370      8368      8374      8371      8375      8376      8372      8371      8373
      8372      8371      8374      8372      8371      8375      8373      8371      8374
      8373      8371      8375      8374      8371      8375      8375      8376      8377
      8375      8376      8378      8375      8376      8379      8376      8379      8380
      8376      8379      8381      8376      8379      8387      8377      8376      8378
      8377      8376      8379      8378      8376      8379      8379      8381      8382
      8379      8387      8388      8379      8387      8389      8379      8387      8390
      8380      8379      8381      8380      8379      8387      8381      8379      8387
      8381      8382      8383      8381      8382      8384      8382      8384      8385
      8382      8384      8386      8382      8384      8396      8383      8382      8384
      8384      8396      8397      8384      8396      8398      8384      8396      8399
      8385      8384      8386      8385      8384      8396      8386      8384      8396
      8387      8390      8391      8388      8387      8389      8388      8387      8390
      8389      8387      8390      8390      8391      8392      8390      8391      8393
      8391      8393      8394      8391      8393      8395      8391      8393      8443
      8392      8391      8393      8393      8443      8444      8393      8443      8445
      8393      8443      8446      8394      8393      8395      8394      8393      8443
      8395      8393      8443      8396      8399      8400      8396      8399      8401
      8396      8399      8402      8397      8396      8398      8397      8396      8399
      8398      8396      8399      8399      8402      8403      8399      8402      8404
      8399      8402      8405      8400      8399      8401      8400      8399      8402
      8401      8399      8402      8402      8405      8406      8402      8405      8407
      8402      8405      8408      8403      8402      8404      8403      8402      8405
      8404      8402      8405      8405      8408      8409      8405      8408      8410
      8405      8408      8411      8406      8405      8407      8406      8405      8408
      8407      8405      8408      8408      8411      8412      8408      8411      8413
      8408      8411      8414      8409      8408      8410      8409      8408      8411
      8410      8408      8411      8411      8414      8415      8411      8414      8416
      8412      8411      8413      8412      8411      8414      8413      8411      8414
      8414      8416      8417      8414      8416      8418      8415      8414      8416
      8416      8418      8419      8416      8418      8420      8416      8418      8421
      8417      8416      8418      8418      8421      8422      8418      8421      8423
      8418      8421      8424      8419      8418      8420      8419      8418      8421
      8420      8418      8421      8421      8424      8425      8421      8424      8426
      8421      8424      8427      8422      8421      8423      8422      8421      8424
      8423      8421      8424      8424      8427      8428      8424      8427      8429
      8424      8427      8430      8425      8424      8426      8425      8424      8427
      8426      8424      8427      8427      8430      8431      8427      8430      8432
      8427      8430      8433      8428      8427      8429      8428      8427      8430
      8429      8427      8430      8430      8433      8434      8430      8433      8435
      8430      8433      8436      8431      8430      8432      8431      8430      8433
      8432      8430      8433      8433      8436      8437      8433      8436      8438
      8433      8436      8439      8434      8433      8435      8434      8433      8436
      8435      8433      8436      8436      8439      8440      8436      8439      8441
      8436      8439      8442      8437      8436      8438      8437      8436      8439
      8438      8436      8439      8440      8439      8441      8440      8439      8442
      8441      8439      8442      8443      8446      8447      8443      8446      8448
      8443      8446      8449      8444      8443      8445      8444      8443      8446
      8445      8443      8446      8446      8449      8450      8446      8449      8451
      8446      8449      8452      8447      8446      8448      8447      8446      8449
      8448      8446      8449      8449      8452      8453      8449      8452      8454
      8449      8452      8455      8450      8449      8451      8450      8449      8452
      8451      8449      8452      8452      8455      8456      8452      8455      8457
      8452      8455      8458      8453      8452      8454      8453      8452      8455
      8454      8452      8455      8455      8458      8459      8455      8458      8460
      8455      8458      8461      8456      8455      8457      8456      8455      8458
      8457      8455      8458      8458      8461      8462      8458      8461      8463
      8458      8461      8464      8459      8458      8460      8459      8458      8461
      8460      8458      8461      8461      8464      8465      8461      8464      8466
      8461      8464      8467      8462      8461      8463      8462      8461      8464
      8463      8461      8464      8464      8467      8468      8464      8467      8469
      8464      8467      8470      8465      8464      8466      8465      8464      8467
      8466      8464      8467      8467      8470      8471      8467      8470      8472
      8467      8470      8473      8468      8467      8469      8468      8467      8470
      8469      8467      8470      8470      8473      8474      8470      8473      8475
      8470      8473      8476      8471      8470      8472      8471      8470      8473
      8472      8470      8473      8473      8476      8477      8473      8476      8478
      8473      8476      8479      8474      8473      8475      8474      8473      8476
      8475      8473      8476      8476      8479      8480      8476      8479      8481
      8476      8479      8482      8477      8476      8478      8477      8476      8479
      8478      8476      8479      8479      8482      8483      8479      8482      8484
      8479      8482      8485      8480      8479      8481      8480      8479      8482
      8481      8479      8482      8483      8482      8484      8483      8482      8485
      8484      8482      8485      8486      8487      8488      8486      8487      8489
      8486      8487      8502      8486      8490      8491      8486      8490      8492
      8486      8490      8493      8486      8494      8495      8486      8494      8496
      8486      8494      8497      8486      8498      8499      8486      8498      8500
      8486      8498      8501      8487      8486      8490      8487      8486      8494
      8487      8486      8498      8487      8502      8503      8487      8502      8504
      8487      8502      8508      8488      8487      8489      8488      8487      8502
      8489      8487      8502      8490      8486      8494      8490      8486      8498
      8491      8490      8492      8491      8490      8493      8492      8490      8493
      8494      8486      8498      8495      8494      8496      8495      8494      8497
      8496      8494      8497      8499      8498      8500      8499      8498      8501
      8500      8498      8501      8502      8508      8505      8503      8502      8504
      8503      8502      8508      8504      8502      8508      8505      8509      8510
      8506      8505      8507      8506      8505      8508      8506      8505      8509
      8507      8505      8508      8507      8505      8509      8508      8505      8509
      8509      8510      8511      8509      8510      8512      8509      8510      8513
      8510      8513      8514      8510      8513      8515      8510      8513      8521
      8511      8510      8512      8511      8510      8513      8512      8510      8513
      8513      8515      8516      8513      8521      8522      8513      8521      8523
      8513      8521      8524      8514      8513      8515      8514      8513      8521
      8515      8513      8521      8515      8516      8517      8515      8516      8518
      8516      8518      8519      8516      8518      8520      8516      8518      8530
      8517      8516      8518      8518      8530      8531      8518      8530      8532
      8518      8530      8533      8519      8518      8520      8519      8518      8530
      8520      8518      8530      8521      8524      8525      8522      8521      8523
      8522      8521      8524      8523      8521      8524      8524      8525      8526
      8524      8525      8527      8525      8527      8528      8525      8527      8529
      8525      8527      8577      8526      8525      8527      8527      8577      8578
      8527      8577      8579      8527      8577      8580      8528      8527      8529
      8528      8527      8577      8529      8527      8577      8530      8533      8534
      8530      8533      8535      8530      8533      8536      8531      8530      8532
      8531      8530      8533      8532      8530      8533      8533      8536      8537
      8533      8536      8538      8533      8536      8539      8534      8533      8535
      8534      8533      8536      8535      8533      8536      8536      8539      8540
      8536      8539      8541      8536      8539      8542      8537      8536      8538
      8537      8536      8539      8538      8536      8539      8539      8542      8543
      8539      8542      8544      8539      8542      8545      8540      8539      8541
      8540      8539      8542      8541      8539      8542      8542      8545      8546
      8542      8545      8547      8542      8545      8548      8543      8542      8544
      8543      8542      8545      8544      8542      8545      8545      8548      8549
      8545      8548      8550      8546      8545      8547      8546      8545      8548
      8547      8545      8548      8548      8550      8551      8548      8550      8552
      8549      8548      8550      8550      8552      8553      8550      8552      8554
      8550      8552      8555      8551      8550      8552      8552      8555      8556
      8552      8555      8557      8552      8555      8558      8553      8552      8554
      8553      8552      8555      8554      8552      8555      8555      8558      8559
      8555      8558      8560      8555      8558      8561      8556      8555      8557
      8556      8555      8558      8557      8555      8558      8558      8561      8562
      8558      8561      8563      8558      8561      8564      8559      8558      8560
      8559      8558      8561      8560      8558      8561      8561      8564      8565
      8561      8564      8566      8561      8564      8567      8562      8561      8563
      8562      8561      8564      8563      8561      8564      8564      8567      8568
      8564      8567      8569      8564      8567      8570      8565      8564      8566
      8565      8564      8567      8566      8564      8567      8567      8570      8571
      8567      8570      8572      8567      8570      8573      8568      8567      8569
      8568      8567      8570      8569      8567      8570      8570      8573      8574
      8570      8573      8575      8570      8573      8576      8571      8570      8572
      8571      8570      8573      8572      8570      8573      8574      8573      8575
      8574      8573      8576      8575      8573      8576      8577      8580      8581
      8577      8580      8582      8577      8580      8583      8578      8577      8579
      8578      8577      8580      8579      8577      8580      8580      8583      8584
      8580      8583      8585      8580      8583      8586      8581      8580      8582
      8581      8580      8583      8582      8580      8583      8583      8586      8587
      8583      8586      8588      8583      8586      8589      8584      8583      8585
      8584      8583      8586      8585      8583      8586      8586      8589      8590
      8586      8589      8591      8586      8589      8592      8587      8586      8588
      8587      8586      8589      8588      8586      8589      8589      8592      8593
      8589      8592      8594      8589      8592      8595      8590      8589      8591
      8590      8589      8592      8591      8589      8592      8592      8595      8596
      8592      8595      8597      8592      8595      8598      8593      8592      8594
      8593      8592      8595      8594      8592      8595      8595      8598      8599
      8595      8598      8600      8595      8598      8601      8596      8595      8597
      8596      8595      8598      8597      8595      8598      8598      8601      8602
      8598      8601      8603      8598      8601      8604      8599      8598      8600
      8599      8598      8601      8600      8598      8601      8601      8604      8605
      8601      8604      8606      8601      8604      8607      8602      8601      8603
      8602      8601      8604      8603      8601      8604      8604      8607      8608
      8604      8607      8609      8604      8607      8610      8605      8604      8606
      8605      8604      8607      8606      8604      8607      8607      8610      8611
      8607      8610      8612      8607      8610      8613      8608      8607      8609
      8608      8607      8610      8609      8607      8610      8610      8613      8614
      8610      8613      8615      8610      8613      8616      8611      8610      8612
      8611      8610      8613      8612      8610      8613      8613      8616      8617
      8613      8616      8618      8613      8616      8619      8614      8613      8615
      8614      8613      8616      8615      8613      8616      8617      8616      8618
      8617      8616      8619      8618      8616      8619      8620      8621      8622
      8620      8621      8623      8620      8621      8636      8620      8624      8625
      8620      8624      8626      8620      8624      8627      8620      8628      8629
      8620      8628      8630      8620      8628      8631      8620      8632      8633
      8620      8632      8634      8620      8632      8635      8621      8620      8624
      8621      8620      8628      8621      8620      8632      8621      8636      8637
      8621      8636      8638      8621      8636      8642      8622      8621      8623
      8622      8621      8636      8623      8621      8636      8624      8620      8628
      8624      8620      8632      8625      8624      8626      8625      8624      8627
      8626      8624      8627      8628      8620      8632      8629      8628      8630
      8629      8628      8631      8630      8628      8631      8633      8632      8634
      8633      8632      8635      8634      8632      8635      8636      8642      8639
      8637      8636      8638      8637      8636      8642      8638      8636      8642
      8639      8643      8644      8640      8639      8641      8640      8639      8642
      8640      8639      8643      8641      8639      8642      8641      8639      8643
      8642      8639      8643      8643      8644      8645      8643      8644      8646
      8643      8644      8647      8644      8647      8648      8644      8647      8649
      8644      8647      8655      8645      8644      8646      8645      8644      8647
      8646      8644      8647      8647      8649      8650      8647      8655      8656
      8647      8655      8657      8647      8655      8658      8648      8647      8649
      8648      8647      8655      8649      8647      8655      8649      8650      8651
      8649      8650      8652      8650      8652      8653      8650      8652      8654
      8650      8652      8664      8651      8650      8652      8652      8664      8665
      8652      8664      8666      8652      8664      8667      8653      8652      8654
      8653      8652      8664      8654      8652      8664      8655      8658      8659
      8656      8655      8657      8656      8655      8658      8657      8655      8658
      8658      8659      8660      8658      8659      8661      8659      8661      8662
      8659      8661      8663      8659      8661      8711      8660      8659      8661
      8661      8711      8712      8661      8711      8713      8661      8711      8714
      8662      8661      8663      8662      8661      8711      8663      8661      8711
      8664      8667      8668      8664      8667      8669      8664      8667      8670
      8665      8664      8666      8665      8664      8667      8666      8664      8667
      8667      8670      8671      8667      8670      8672      8667      8670      8673
      8668      8667      8669      8668      8667      8670      8669      8667      8670
      8670      8673      8674      8670      8673      8675      8670      8673      8676
      8671      8670      8672      8671      8670      8673      8672      8670      8673
      8673      8676      8677      8673      8676      8678      8673      8676      8679
      8674      8673      8675      8674      8673      8676      8675      8673      8676
      8676      8679      8680      8676      8679      8681      8676      8679      8682
      8677      8676      8678      8677      8676      8679      8678      8676      8679
      8679      8682      8683      8679      8682      8684      8680      8679      8681
      8680      8679      8682      8681      8679      8682      8682      8684      8685
      8682      8684      8686      8683      8682      8684      8684      8686      8687
      8684      8686      8688      8684      8686      8689      8685      8684      8686
      8686      8689      8690      8686      8689      8691      8686      8689      8692
      8687      8686      8688      8687      8686      8689      8688      8686      8689
      8689      8692      8693      8689      8692      8694      8689      8692      8695
      8690      8689      8691      8690      8689      8692      8691      8689      8692
      8692      8695      8696      8692      8695      8697      8692      8695      8698
      8693      8692      8694      8693      8692      8695      8694      8692      8695
      8695      8698      8699      8695      8698      8700      8695      8698      8701
      8696      8695      8697      8696      8695      8698      8697      8695      8698
      8698      8701      8702      8698      8701      8703      8698      8701      8704
      8699      8698      8700      8699      8698      8701      8700      8698      8701
      8701      8704      8705      8701      8704      8706      8701      8704      8707
      8702      8701      8703      8702      8701      8704      8703      8701      8704
      8704      8707      8708      8704      8707      8709      8704      8707      8710
      8705      8704      8706      8705      8704      8707      8706      8704      8707
      8708      8707      8709      8708      8707      8710      8709      8707      8710
      8711      8714      8715      8711      8714      8716      8711      8714      8717
      8712      8711      8713      8712      8711      8714      8713      8711      8714
      8714      8717      8718      8714      8717      8719      8714      8717      8720
      8715      8714      8716      8715      8714      8717      8716      8714      8717
      8717      8720      8721      8717      8720      8722      8717      8720      8723
      8718      8717      8719      8718      8717      8720      8719      8717      8720
      8720      8723      8724      8720      8723      8725      8720      8723      8726
      8721      8720      8722      8721      8720      8723      8722      8720      8723
      8723      8726      8727      8723      8726      8728      8723      8726      8729
      8724      8723      8725      8724      8723      8726      8725      8723      8726
      8726      8729      8730      8726      8729      8731      8726      8729      8732
      8727      8726      8728      8727      8726      8729      8728      8726      8729
      8729      8732      8733      8729      8732      8734      8729      8732      8735
      8730      8729      8731      8730      8729      8732      8731      8729      8732
      8732      8735      8736      8732      8735      8737      8732      8735      8738
      8733      8732      8734      8733      8732      8735      8734      8732      8735
      8735      8738      8739      8735      8738      8740      8735      8738      8741
      8736      8735      8737      8736      8735      8738      8737      8735      8738
      8738      8741      8742      8738      8741      8743      8738      8741      8744
      8739      8738      8740      8739      8738      8741      8740      8738      8741
      8741      8744      8745      8741      8744      8746      8741      8744      8747
      8742      8741      8743      8742      8741      8744      8743      8741      8744
      8744      8747      8748      8744      8747      8749      8744      8747      8750
      8745      8744      8746      8745      8744      8747      8746      8744      8747
      8747      8750      8751      8747      8750      8752      8747      8750      8753
      8748      8747      8749      8748      8747      8750      8749      8747      8750
      8751      8750      8752      8751      8750      8753      8752      8750      8753
      8754      8755      8756      8754      8755      8757      8754      8755      8770
      8754      8758      8759      8754      8758      8760      8754      8758      8761
      8754      8762      8763      8754      8762      8764      8754      8762      8765
      8754      8766      8767      8754      8766      8768      8754      8766      8769
      8755      8754      8758      8755      8754      8762      8755      8754      8766
      8755      8770      8771      8755      8770      8772      8755      8770      8776
      8756      8755      8757      8756      8755      8770      8757      8755      8770
      8758      8754      8762      8758      8754      8766      8759      8758      8760
      8759      8758      8761      8760      8758      8761      8762      8754      8766
      8763      8762      8764      8763      8762      8765      8764      8762      8765
      8767      8766      8768      8767      8766      8769      8768      8766      8769
      8770      8776      8773      8771      8770      8772      8771      8770      8776
      8772      8770      8776      8773      8777      8778      8774      8773      8775
      8774      8773      8776      8774      8773      8777      8775      8773      8776
      8775      8773      8777      8776      8773      8777      8777      8778      8779
      8777      8778      8780      8777      8778      8781      8778      8781      8782
      8778      8781      8783      8778      8781      8789      8779      8778      8780
      8779      8778      8781      8780      8778      8781      8781      8783      8784
      8781      8789      8790      8781      8789      8791      8781      8789      8792
      8782      8781      8783      8782      8781      8789      8783      8781      8789
      8783      8784      8785      8783      8784      8786      8784      8786      8787
      8784      8786      8788      8784      8786      8798      8785      8784      8786
      8786      8798      8799      8786      8798      8800      8786      8798      8801
      8787      8786      8788      8787      8786      8798      8788      8786      8798
      8789      8792      8793      8790      8789      8791      8790      8789      8792
      8791      8789      8792      8792      8793      8794      8792      8793      8795
      8793      8795      8796      8793      8795      8797      8793      8795      8845
      8794      8793      8795      8795      8845      8846      8795      8845      8847
      8795      8845      8848      8796      8795      8797      8796      8795      8845
      8797      8795      8845      8798      8801      8802      8798      8801      8803
      8798      8801      8804      8799      8798      8800      8799      8798      8801
      8800      8798      8801      8801      8804      8805      8801      8804      8806
      8801      8804      8807      8802      8801      8803      8802      8801      8804
      8803      8801      8804      8804      8807      8808      8804      8807      8809
      8804      8807      8810      8805      8804      8806      8805      8804      8807
      8806      8804      8807      8807      8810      8811      8807      8810      8812
      8807      8810      8813      8808      8807      8809      8808      8807      8810
      8809      8807      8810      8810      8813      8814      8810      8813      8815
      8810      8813      8816      8811      8810      8812      8811      8810      8813
      8812      8810      8813      8813      8816      8817      8813      8816      8818
      8814      8813      8815      8814      8813      8816      8815      8813      8816
      8816      8818      8819      8816      8818      8820      8817      8816      8818
      8818      8820      8821      8818      8820      8822      8818      8820      8823
      8819      8818      8820      8820      8823      8824      8820      8823      8825
      8820      8823      8826      8821      8820      8822      8821      8820      8823
      8822      8820      8823      8823      8826      8827      8823      8826      8828
      8823      8826      8829      8824      8823      8825      8824      8823      8826
      8825      8823      8826      8826      8829      8830      8826      8829      8831
      8826      8829      8832      8827      8826      8828      8827      8826      8829
      8828      8826      8829      8829      8832      8833      8829      8832      8834
      8829      8832      8835      8830      8829      8831      8830      8829      8832
      8831      8829      8832      8832      8835      8836      8832      8835      8837
      8832      8835      8838      8833      8832      8834      8833      8832      8835
      8834      8832      8835      8835      8838      8839      8835      8838      8840
      8835      8838      8841      8836      8835      8837      8836      8835      8838
      8837      8835      8838      8838      8841      8842      8838      8841      8843
      8838      8841      8844      8839      8838      8840      8839      8838      8841
      8840      8838      8841      8842      8841      8843      8842      8841      8844
      8843      8841      8844      8845      8848      8849      8845      8848      8850
      8845      8848      8851      8846      8845      8847      8846      8845      8848
      8847      8845      8848      8848      8851      8852      8848      8851      8853
      8848      8851      8854      8849      8848      8850      8849      8848      8851
      8850      8848      8851      8851      8854      8855      8851      8854      8856
      8851      8854      8857      8852      8851      8853      8852      8851      8854
      8853      8851      8854      8854      8857      8858      8854      8857      8859
      8854      8857      8860      8855      8854      8856      8855      8854      8857
      8856      8854      8857      8857      8860      8861      8857      8860      8862
      8857      8860      8863      8858      8857      8859      8858      8857      8860
      8859      8857      8860      8860      8863      8864      8860      8863      8865
      8860      8863      8866      8861      8860      8862      8861      8860      8863
      8862      8860      8863      8863      8866      8867      8863      8866      8868
      8863      8866      8869      8864      8863      8865      8864      8863      8866
      8865      8863      8866      8866      8869      8870      8866      8869      8871
      8866      8869      8872      8867      8866      8868      8867      8866      8869
      8868      8866      8869      8869      8872      8873      8869      8872      8874
      8869      8872      8875      8870      8869      8871      8870      8869      8872
      8871      8869      8872      8872      8875      8876      8872      8875      8877
      8872      8875      8878      8873      8872      8874      8873      8872      8875
      8874      8872      8875      8875      8878      8879      8875      8878      8880
      8875      8878      8881      8876      8875      8877      8876      8875      8878
      8877      8875      8878      8878      8881      8882      8878      8881      8883
      8878      8881      8884      8879      8878      8880      8879      8878      8881
      8880      8878      8881      8881      8884      8885      8881      8884      8886
      8881      8884      8887      8882      8881      8883      8882      8881      8884
      8883      8881      8884      8885      8884      8886      8885      8884      8887
      8886      8884      8887      8888      8892      8893      8888      8892      8894
      8888      8892      8897      8889      8888      8890      8889      8888      8891
      8889      8888      8892      8890      8888      8891      8890      8888      8892
      8891      8888      8892      8892      8894      8895      8892      8894      8896
      8892      8897      8898      8892      8897      8899      8892      8897      8903
      8893      8892      8894      8893      8892      8897      8894      8892      8897
      8895      8894      8896      8897      8903      8900      8898      8897      8899
      8898      8897      8903      8899      8897      8903      8900      8904      8905
      8901      8900      8902      8901      8900      8903      8901      8900      8904
      8902      8900      8903      8902      8900      8904      8903      8900      8904
      8904      8905      8906      8904      8905      8907      8904      8905      8908
      8905      8908      8909      8905      8908      8910      8905      8908      8916
      8906      8905      8907      8906      8905      8908      8907      8905      8908
      8908      8910      8911      8908      8916      8917      8908      8916      8918
      8908      8916      8919      8909      8908      8910      8909      8908      8916
      8910      8908      8916      8910      8911      8912      8910      8911      8913
      8911      8913      8914      8911      8913      8915      8911      8913      8925
      8912      8911      8913      8913      8925      8926      8913      8925      8927
      8913      8925      8928      8914      8913      8915      8914      8913      8925
      8915      8913      8925      8916      8919      8920      8917      8916      8918
      8917      8916      8919      8918      8916      8919      8919      8920      8921
      8919      8920      8922      8920      8922      8923      8920      8922      8924
      8920      8922      8972      8921      8920      8922      8922      8972      8973
      8922      8972      8974      8922      8972      8975      8923      8922      8924
      8923      8922      8972      8924      8922      8972      8925      8928      8929
      8925      8928      8930      8925      8928      8931      8926      8925      8927
      8926      8925      8928      8927      8925      8928      8928      8931      8932
      8928      8931      8933      8928      8931      8934      8929      8928      8930
      8929      8928      8931      8930      8928      8931      8931      8934      8935
      8931      8934      8936      8931      8934      8937      8932      8931      8933
      8932      8931      8934      8933      8931      8934      8934      8937      8938
      8934      8937      8939      8934      8937      8940      8935      8934      8936
      8935      8934      8937      8936      8934      8937      8937      8940      8941
      8937      8940      8942      8937      8940      8943      8938      8937      8939
      8938      8937      8940      8939      8937      8940      8940      8943      8944
      8940      8943      8945      8941      8940      8942      8941      8940      8943
      8942      8940      8943      8943      8945      8946      8943      8945      8947
      8944      8943      8945      8945      8947      8948      8945      8947      8949
      8945      8947      8950      8946      8945      8947      8947      8950      8951
      8947      8950      8952      8947      8950      8953      8948      8947      8949
      8948      8947      8950      8949      8947      8950      8950      8953      8954
      8950      8953      8955      8950      8953      8956      8951      8950      8952
      8951      8950      8953      8952      8950      8953      8953      8956      8957
      8953      8956      8958      8953      8956      8959      8954      8953      8955
      8954      8953      8956      8955      8953      8956      8956      8959      8960
      8956      8959      8961      8956      8959      8962      8957      8956      8958
      8957      8956      8959      8958      8956      8959      8959      8962      8963
      8959      8962      8964      8959      8962      8965      8960      8959      8961
      8960      8959      8962      8961      8959      8962      8962      8965      8966
      8962      8965      8967      8962      8965      8968      8963      8962      8964
      8963      8962      8965      8964      8962      8965      8965      8968      8969
      8965      8968      8970      8965      8968      8971      8966      8965      8967
      8966      8965      8968      8967      8965      8968      8969      8968      8970
      8969      8968      8971      8970      8968      8971      8972      8975      8976
      8972      8975      8977      8972      8975      8978      8973      8972      8974
      8973      8972      8975      8974      8972      8975      8975      8978      8979
      8975      8978      8980      8975      8978      8981      8976      8975      8977
      8976      8975      8978      8977      8975      8978      8978      8981      8982
      8978      8981      8983      8978      8981      8984      8979      8978      8980
      8979      8978      8981      8980      8978      8981      8981      8984      8985
      8981      8984      8986      8981      8984      8987      8982      8981      8983
      8982      8981      8984      8983      8981      8984      8984      8987      8988
      8984      8987      8989      8984      8987      8990      8985      8984      8986
      8985      8984      8987      8986      8984      8987      8987      8990      8991
      8987      8990      8992      8987      8990      8993      8988      8987      8989
      8988      8987      8990      8989      8987      8990      8990      8993      8994
      8990      8993      8995      8990      8993      8996      8991      8990      8992
      8991      8990      8993      8992      8990      8993      8993      8996      8997
      8993      8996      8998      8993      8996      8999      8994      8993      8995
      8994      8993      8996      8995      8993      8996      8996      8999      9000
      8996      8999      9001      8996      8999      9002      8997      8996      8998
      8997      8996      8999      8998      8996      8999      8999      9002      9003
      8999      9002      9004      8999      9002      9005      9000      8999      9001
      9000      8999      9002      9001      8999      9002      9002      9005      9006
      9002      9005      9007      9002      9005      9008      9003      9002      9004
      9003      9002      9005      9004      9002      9005      9005      9008      9009
      9005      9008      9010      9005      9008      9011      9006      9005      9007
      9006      9005      9008      9007      9005      9008      9008      9011      9012
      9008      9011      9013      9008      9011      9014      9009      9008      9010
      9009      9008      9011      9010      9008      9011      9012      9011      9013
      9012      9011      9014      9013      9011      9014      9015      9019      9020
      9015      9019      9021      9015      9019      9024      9016      9015      9017
      9016      9015      9018      9016      9015      9019      9017      9015      9018
      9017      9015      9019      9018      9015      9019      9019      9021      9022
      9019      9021      9023      9019      9024      9025      9019      9024      9026
      9019      9024      9030      9020      9019      9021      9020      9019      9024
      9021      9019      9024      9022      9021      9023      9024      9030      9027
      9025      9024      9026      9025      9024      9030      9026      9024      9030
      9027      9031      9032      9028      9027      9029      9028      9027      9030
      9028      9027      9031      9029      9027      9030      9029      9027      9031
      9030      9027      9031      9031      9032      9033      9031      9032      9034
      9031      9032      9035      9032      9035      9036      9032      9035      9037
      9032      9035      9043      9033      9032      9034      9033      9032      9035
      9034      9032      9035      9035      9037      9038      9035      9043      9044
      9035      9043      9045      9035      9043      9046      9036      9035      9037
      9036      9035      9043      9037      9035      9043      9037      9038      9039
      9037      9038      9040      9038      9040      9041      9038      9040      9042
      9038      9040      9052      9039      9038      9040      9040      9052      9053
      9040      9052      9054      9040      9052      9055      9041      9040      9042
      9041      9040      9052      9042      9040      9052      9043      9046      9047
      9044      9043      9045      9044      9043      9046      9045      9043      9046
      9046      9047      9048      9046      9047      9049      9047      9049      9050
      9047      9049      9051      9047      9049      9099      9048      9047      9049
      9049      9099      9100      9049      9099      9101      9049      9099      9102
      9050      9049      9051      9050      9049      9099      9051      9049      9099
      9052      9055      9056      9052      9055      9057      9052      9055      9058
      9053      9052      9054      9053      9052      9055      9054      9052      9055
      9055      9058      9059      9055      9058      9060      9055      9058      9061
      9056      9055      9057      9056      9055      9058      9057      9055      9058
      9058      9061      9062      9058      9061      9063      9058      9061      9064
      9059      9058      9060      9059      9058      9061      9060      9058      9061
      9061      9064      9065      9061      9064      9066      9061      9064      9067
      9062      9061      9063      9062      9061      9064      9063      9061      9064
      9064      9067      9068      9064      9067      9069      9064      9067      9070
      9065      9064      9066      9065      9064      9067      9066      9064      9067
      9067      9070      9071      9067      9070      9072      9068      9067      9069
      9068      9067      9070      9069      9067      9070      9070      9072      9073
      9070      9072      9074      9071      9070      9072      9072      9074      9075
      9072      9074      9076      9072      9074      9077      9073      9072      9074
      9074      9077      9078      9074      9077      9079      9074      9077      9080
      9075      9074      9076      9075      9074      9077      9076      9074      9077
      9077      9080      9081      9077      9080      9082      9077      9080      9083
      9078      9077      9079      9078      9077      9080      9079      9077      9080
      9080      9083      9084      9080      9083      9085      9080      9083      9086
      9081      9080      9082      9081      9080      9083      9082      9080      9083
      9083      9086      9087      9083      9086      9088      9083      9086      9089
      9084      9083      9085      9084      9083      9086      9085      9083      9086
      9086      9089      9090      9086      9089      9091      9086      9089      9092
      9087      9086      9088      9087      9086      9089      9088      9086      9089
      9089      9092      9093      9089      9092      9094      9089      9092      9095
      9090      9089      9091      9090      9089      9092      9091      9089      9092
      9092      9095      9096      9092      9095      9097      9092      9095      9098
      9093      9092      9094      9093      9092      9095      9094      9092      9095
      9096      9095      9097      9096      9095      9098      9097      9095      9098
      9099      9102      9103      9099      9102      9104      9099      9102      9105
      9100      9099      9101      9100      9099      9102      9101      9099      9102
      9102      9105      9106      9102      9105      9107      9102      9105      9108
      9103      9102      9104      9103      9102      9105      9104      9102      9105
      9105      9108      9109      9105      9108      9110      9105      9108      9111
      9106      9105      9107      9106      9105      9108      9107      9105      9108
      9108      9111      9112      9108      9111      9113      9108      9111      9114
      9109      9108      9110      9109      9108      9111      9110      9108      9111
      9111      9114      9115      9111      9114      9116      9111      9114      9117
      9112      9111      9113      9112      9111      9114      9113      9111      9114
      9114      9117      9118      9114      9117      9119      9114      9117      9120
      9115      9114      9116      9115      9114      9117      9116      9114      9117
      9117      9120      9121      9117      9120      9122      9117      9120      9123
      9118      9117      9119      9118      9117      9120      9119      9117      9120
      9120      9123      9124      9120      9123      9125      9120      9123      9126
      9121      9120      9122      9121      9120      9123      9122      9120      9123
      9123      9126      9127      9123      9126      9128      9123      9126      9129
      9124      9123      9125      9124      9123      9126      9125      9123      9126
      9126      9129      9130      9126      9129      9131      9126      9129      9132
      9127      9126      9128      9127      9126      9129      9128      9126      9129
      9129      9132      9133      9129      9132      9134      9129      9132      9135
      9130      9129      9131      9130      9129      9132      9131      9129      9132
      9132      9135      9136      9132      9135      9137      9132      9135      9138
      9133      9132      9134      9133      9132      9135      9134      9132      9135
      9135      9138      9139      9135      9138      9140      9135      9138      9141
      9136      9135      9137      9136      9135      9138      9137      9135      9138
      9139      9138      9140      9139      9138      9141      9140      9138      9141
      9142      9143      9144      9142      9143      9145      9142      9143      9158
      9142      9146      9147      9142      9146      9148      9142      9146      9149
      9142      9150      9151      9142      9150      9152      9142      9150      9153
      9142      9154      9155      9142      9154      9156      9142      9154      9157
      9143      9142      9146      9143      9142      9150      9143      9142      9154
      9143      9158      9159      9143      9158      9160      9143      9158      9164
      9144      9143      9145      9144      9143      9158      9145      9143      9158
      9146      9142      9150      9146      9142      9154      9147      9146      9148
      9147      9146      9149      9148      9146      9149      9150      9142      9154
      9151      9150      9152      9151      9150      9153      9152      9150      9153
      9155      9154      9156      9155      9154      9157      9156      9154      9157
      9158      9164      9161      9159      9158      9160      9159      9158      9164
      9160      9158      9164      9161      9165      9166      9162      9161      9163
      9162      9161      9164      9162      9161      9165      9163      9161      9164
      9163      9161      9165      9164      9161      9165      9165      9166      9167
      9165      9166      9168      9165      9166      9169      9166      9169      9170
      9166      9169      9171      9166      9169      9177      9167      9166      9168
      9167      9166      9169      9168      9166      9169      9169      9171      9172
      9169      9177      9178      9169      9177      9179      9169      9177      9180
      9170      9169      9171      9170      9169      9177      9171      9169      9177
      9171      9172      9173      9171      9172      9174      9172      9174      9175
      9172      9174      9176      9172      9174      9186      9173      9172      9174
      9174      9186      9187      9174      9186      9188      9174      9186      9189
      9175      9174      9176      9175      9174      9186      9176      9174      9186
      9177      9180      9181      9178      9177      9179      9178      9177      9180
      9179      9177      9180      9180      9181      9182      9180      9181      9183
      9181      9183      9184      9181      9183      9185      9181      9183      9233
      9182      9181      9183      9183      9233      9234      9183      9233      9235
      9183      9233      9236      9184      9183      9185      9184      9183      9233
      9185      9183      9233      9186      9189      9190      9186      9189      9191
      9186      9189      9192      9187      9186      9188      9187      9186      9189
      9188      9186      9189      9189      9192      9193      9189      9192      9194
      9189      9192      9195      9190      9189      9191      9190      9189      9192
      9191      9189      9192      9192      9195      9196      9192      9195      9197
      9192      9195      9198      9193      9192      9194      9193      9192      9195
      9194      9192      9195      9195      9198      9199      9195      9198      9200
      9195      9198      9201      9196      9195      9197      9196      9195      9198
      9197      9195      9198      9198      9201      9202      9198      9201      9203
      9198      9201      9204      9199      9198      9200      9199      9198      9201
      9200      9198      9201      9201      9204      9205      9201      9204      9206
      9202      9201      9203      9202      9201      9204      9203      9201      9204
      9204      9206      9207      9204      9206      9208      9205      9204      9206
      9206      9208      9209      9206      9208      9210      9206      9208      9211
      9207      9206      9208      9208      9211      9212      9208      9211      9213
      9208      9211      9214      9209      9208      9210      9209      9208      9211
      9210      9208      9211      9211      9214      9215      9211      9214      9216
      9211      9214      9217      9212      9211      9213      9212      9211      9214
      9213      9211      9214      9214      9217      9218      9214      9217      9219
      9214      9217      9220      9215      9214      9216      9215      9214      9217
      9216      9214      9217      9217      9220      9221      9217      9220      9222
      9217      9220      9223      9218      9217      9219      9218      9217      9220
      9219      9217      9220      9220      9223      9224      9220      9223      9225
      9220      9223      9226      9221      9220      9222      9221      9220      9223
      9222      9220      9223      9223      9226      9227      9223      9226      9228
      9223      9226      9229      9224      9223      9225      9224      9223      9226
      9225      9223      9226      9226      9229      9230      9226      9229      9231
      9226      9229      9232      9227      9226      9228      9227      9226      9229
      9228      9226      9229      9230      9229      9231      9230      9229      9232
      9231      9229      9232      9233      9236      9237      9233      9236      9238
      9233      9236      9239      9234      9233      9235      9234      9233      9236
      9235      9233      9236      9236      9239      9240      9236      9239      9241
      9236      9239      9242      9237      9236      9238      9237      9236      9239
      9238      9236      9239      9239      9242      9243      9239      9242      9244
      9239      9242      9245      9240      9239      9241      9240      9239      9242
      9241      9239      9242      9242      9245      9246      9242      9245      9247
      9242      9245      9248      9243      9242      9244      9243      9242      9245
      9244      9242      9245      9245      9248      9249      9245      9248      9250
      9245      9248      9251      9246      9245      9247      9246      9245      9248
      9247      9245      9248      9248      9251      9252      9248      9251      9253
      9248      9251      9254      9249      9248      9250      9249      9248      9251
      9250      9248      9251      9251      9254      9255      9251      9254      9256
      9251      9254      9257      9252      9251      9253      9252      9251      9254
      9253      9251      9254      9254      9257      9258      9254      9257      9259
      9254      9257      9260      9255      9254      9256      9255      9254      9257
      9256      9254      9257      9257      9260      9261      9257      9260      9262
      9257      9260      9263      9258      9257      9259      9258      9257      9260
      9259      9257      9260      9260      9263      9264      9260      9263      9265
      9260      9263      9266      9261      9260      9262      9261      9260      9263
      9262      9260      9263      9263      9266      9267      9263      9266      9268
      9263      9266      9269      9264      9263      9265      9264      9263      9266
      9265      9263      9266      9266      9269      9270      9266      9269      9271
      9266      9269      9272      9267      9266      9268      9267      9266      9269
      9268      9266      9269      9269      9272      9273      9269      9272      9274
      9269      9272      9275      9270      9269      9271      9270      9269      9272
      9271      9269      9272      9273      9272      9274      9273      9272      9275
      9274      9272      9275      9276      9277      9278      9276      9277      9279
      9276      9277      9292      9276      9280      9281      9276      9280      9282
      9276      9280      9283      9276      9284      9285      9276      9284      9286
      9276      9284      9287      9276      9288      9289      9276      9288      9290
      9276      9288      9291      9277      9276      9280      9277      9276      9284
      9277      9276      9288      9277      9292      9293      9277      9292      9294
      9277      9292      9298      9278      9277      9279      9278      9277      9292
      9279      9277      9292      9280      9276      9284      9280      9276      9288
      9281      9280      9282      9281      9280      9283      9282      9280      9283
      9284      9276      9288      9285      9284      9286      9285      9284      9287
      9286      9284      9287      9289      9288      9290      9289      9288      9291
      9290      9288      9291      9292      9298      9295      9293      9292      9294
      9293      9292      9298      9294      9292      9298      9295      9299      9300
      9296      9295      9297      9296      9295      9298      9296      9295      9299
      9297      9295      9298      9297      9295      9299      9298      9295      9299
      9299      9300      9301      9299      9300      9302      9299      9300      9303
      9300      9303      9304      9300      9303      9305      9300      9303      9311
      9301      9300      9302      9301      9300      9303      9302      9300      9303
      9303      9305      9306      9303      9311      9312      9303      9311      9313
      9303      9311      9314      9304      9303      9305      9304      9303      9311
      9305      9303      9311      9305      9306      9307      9305      9306      9308
      9306      9308      9309      9306      9308      9310      9306      9308      9320
      9307      9306      9308      9308      9320      9321      9308      9320      9322
      9308      9320      9323      9309      9308      9310      9309      9308      9320
      9310      9308      9320      9311      9314      9315      9312      9311      9313
      9312      9311      9314      9313      9311      9314      9314      9315      9316
      9314      9315      9317      9315      9317      9318      9315      9317      9319
      9315      9317      9367      9316      9315      9317      9317      9367      9368
      9317      9367      9369      9317      9367      9370      9318      9317      9319
      9318      9317      9367      9319      9317      9367      9320      9323      9324
      9320      9323      9325      9320      9323      9326      9321      9320      9322
      9321      9320      9323      9322      9320      9323      9323      9326      9327
      9323      9326      9328      9323      9326      9329      9324      9323      9325
      9324      9323      9326      9325      9323      9326      9326      9329      9330
      9326      9329      9331      9326      9329      9332      9327      9326      9328
      9327      9326      9329      9328      9326      9329      9329      9332      9333
      9329      9332      9334      9329      9332      9335      9330      9329      9331
      9330      9329      9332      9331      9329      9332      9332      9335      9336
      9332      9335      9337      9332      9335      9338      9333      9332      9334
      9333      9332      9335      9334      9332      9335      9335      9338      9339
      9335      9338      9340      9336      9335      9337      9336      9335      9338
      9337      9335      9338      9338      9340      9341      9338      9340      9342
      9339      9338      9340      9340      9342      9343      9340      9342      9344
      9340      9342      9345      9341      9340      9342      9342      9345      9346
      9342      9345      9347      9342      9345      9348      9343      9342      9344
      9343      9342      9345      9344      9342      9345      9345      9348      9349
      9345      9348      9350      9345      9348      9351      9346      9345      9347
      9346      9345      9348      9347      9345      9348      9348      9351      9352
      9348      9351      9353      9348      9351      9354      9349      9348      9350
      9349      9348      9351      9350      9348      9351      9351      9354      9355
      9351      9354      9356      9351      9354      9357      9352      9351      9353
      9352      9351      9354      9353      9351      9354      9354      9357      9358
      9354      9357      9359      9354      9357      9360      9355      9354      9356
      9355      9354      9357      9356      9354      9357      9357      9360      9361
      9357      9360      9362      9357      9360      9363      9358      9357      9359
      9358      9357      9360      9359      9357      9360      9360      9363      9364
      9360      9363      9365      9360      9363      9366      9361      9360      9362
      9361      9360      9363      9362      9360      9363      9364      9363      9365
      9364      9363      9366      9365      9363      9366      9367      9370      9371
      9367      9370      9372      9367      9370      9373      9368      9367      9369
      9368      9367      9370      9369      9367      9370      9370      9373      9374
      9370      9373      9375      9370      9373      9376      9371      9370      9372
      9371      9370      9373      9372      9370      9373      9373      9376      9377
      9373      9376      9378      9373      9376      9379      9374      9373      9375
      9374      9373      9376      9375      9373      9376      9376      9379      9380
      9376      9379      9381      9376      9379      9382      9377      9376      9378
      9377      9376      9379      9378      9376      9379      9379      9382      9383
      9379      9382      9384      9379      9382      9385      9380      9379      9381
      9380      9379      9382      9381      9379      9382      9382      9385      9386
      9382      9385      9387      9382      9385      9388      9383      9382      9384
      9383      9382      9385      9384      9382      9385      9385      9388      9389
      9385      9388      9390      9385      9388      9391      9386      9385      9387
      9386      9385      9388      9387      9385      9388      9388      9391      9392
      9388      9391      9393      9388      9391      9394      9389      9388      9390
      9389      9388      9391      9390      9388      9391      9391      9394      9395
      9391      9394      9396      9391      9394      9397      9392      9391      9393
      9392      9391      9394      9393      9391      9394      9394      9397      9398
      9394      9397      9399      9394      9397      9400      9395      9394      9396
      9395      9394      9397      9396      9394      9397      9397      9400      9401
      9397      9400      9402      9397      9400      9403      9398      9397      9399
      9398      9397      9400      9399      9397      9400      9400      9403      9404
      9400      9403      9405      9400      9403      9406      9401      9400      9402
      9401      9400      9403      9402      9400      9403      9403      9406      9407
      9403      9406      9408      9403      9406      9409      9404      9403      9405
      9404      9403      9406      9405      9403      9406      9407      9406      9408
      9407      9406      9409      9408      9406      9409      9410      9411      9412
      9410      9411      9413      9410      9411      9426      9410      9414      9415
      9410      9414      9416      9410      9414      9417      9410      9418      9419
      9410      9418      9420      9410      9418      9421      9410      9422      9423
      9410      9422      9424      9410      9422      9425      9411      9410      9414
      9411      9410      9418      9411      9410      9422      9411      9426      9427
      9411      9426      9428      9411      9426      9432      9412      9411      9413
      9412      9411      9426      9413      9411      9426      9414      9410      9418
      9414      9410      9422      9415      9414      9416      9415      9414      9417
      9416      9414      9417      9418      9410      9422      9419      9418      9420
      9419      9418      9421      9420      9418      9421      9423      9422      9424
      9423      9422      9425      9424      9422      9425      9426      9432      9429
      9427      9426      9428      9427      9426      9432      9428      9426      9432
      9429      9433      9434      9430      9429      9431      9430      9429      9432
      9430      9429      9433      9431      9429      9432      9431      9429      9433
      9432      9429      9433      9433      9434      9435      9433      9434      9436
      9433      9434      9437      9434      9437      9438      9434      9437      9439
      9434      9437      9445      9435      9434      9436      9435      9434      9437
      9436      9434      9437      9437      9439      9440      9437      9445      9446
      9437      9445      9447      9437      9445      9448      9438      9437      9439
      9438      9437      9445      9439      9437      9445      9439      9440      9441
      9439      9440      9442      9440      9442      9443      9440      9442      9444
      9440      9442      9454      9441      9440      9442      9442      9454      9455
      9442      9454      9456      9442      9454      9457      9443      9442      9444
      9443      9442      9454      9444      9442      9454      9445      9448      9449
      9446      9445      9447      9446      9445      9448      9447      9445      9448
      9448      9449      9450      9448      9449      9451      9449      9451      9452
      9449      9451      9453      9449      9451      9501      9450      9449      9451
      9451      9501      9502      9451      9501      9503      9451      9501      9504
      9452      9451      9453      9452      9451      9501      9453      9451      9501
      9454      9457      9458      9454      9457      9459      9454      9457      9460
      9455      9454      9456      9455      9454      9457      9456      9454      9457
      9457      9460      9461      9457      9460      9462      9457      9460      9463
      9458      9457      9459      9458      9457      9460      9459      9457      9460
      9460      9463      9464      9460      9463      9465      9460      9463      9466
      9461      9460      9462      9461      9460      9463      9462      9460      9463
      9463      9466      9467      9463      9466      9468      9463      9466      9469
      9464      9463      9465      9464      9463      9466      9465      9463      9466
      9466      9469      9470      9466      9469      9471      9466      9469      9472
      9467      9466      9468      9467      9466      9469      9468      9466      9469
      9469      9472      9473      9469      9472      9474      9470      9469      9471
      9470      9469      9472      9471      9469      9472      9472      9474      9475
      9472      9474      9476      9473      9472      9474      9474      9476      9477
      9474      9476      9478      9474      9476      9479      9475      9474      9476
      9476      9479      9480      9476      9479      9481      9476      9479      9482
      9477      9476      9478      9477      9476      9479      9478      9476      9479
      9479      9482      9483      9479      9482      9484      9479      9482      9485
      9480      9479      9481      9480      9479      9482      9481      9479      9482
      9482      9485      9486      9482      9485      9487      9482      9485      9488
      9483      9482      9484      9483      9482      9485      9484      9482      9485
      9485      9488      9489      9485      9488      9490      9485      9488      9491
      9486      9485      9487      9486      9485      9488      9487      9485      9488
      9488      9491      9492      9488      9491      9493      9488      9491      9494
      9489      9488      9490      9489      9488      9491      9490      9488      9491
      9491      9494      9495      9491      9494      9496      9491      9494      9497
      9492      9491      9493      9492      9491      9494      9493      9491      9494
      9494      9497      9498      9494      9497      9499      9494      9497      9500
      9495      9494      9496      9495      9494      9497      9496      9494      9497
      9498      9497      9499      9498      9497      9500      9499      9497      9500
      9501      9504      9505      9501      9504      9506      9501      9504      9507
      9502      9501      9503      9502      9501      9504      9503      9501      9504
      9504      9507      9508      9504      9507      9509      9504      9507      9510
      9505      9504      9506      9505      9504      9507      9506      9504      9507
      9507      9510      9511      9507      9510      9512      9507      9510      9513
      9508      9507      9509      9508      9507      9510      9509      9507      9510
      9510      9513      9514      9510      9513      9515      9510      9513      9516
      9511      9510      9512      9511      9510      9513      9512      9510      9513
      9513      9516      9517      9513      9516      9518      9513      9516      9519
      9514      9513      9515      9514      9513      9516      9515      9513      9516
      9516      9519      9520      9516      9519      9521      9516      9519      9522
      9517      9516      9518      9517      9516      9519      9518      9516      9519
      9519      9522      9523      9519      9522      9524      9519      9522      9525
      9520      9519      9521      9520      9519      9522      9521      9519      9522
      9522      9525      9526      9522      9525      9527      9522      9525      9528
      9523      9522      9524      9523      9522      9525      9524      9522      9525
      9525      9528      9529      9525      9528      9530      9525      9528      9531
      9526      9525      9527      9526      9525      9528      9527      9525      9528
      9528      9531      9532      9528      9531      9533      9528      9531      9534
      9529      9528      9530      9529      9528      9531      9530      9528      9531
      9531      9534      9535      9531      9534      9536      9531      9534      9537
      9532      9531      9533      9532      9531      9534      9533      9531      9534
      9534      9537      9538      9534      9537      9539      9534      9537      9540
      9535      9534      9536      9535      9534      9537      9536      9534      9537
      9537      9540      9541      9537      9540      9542      9537      9540      9543
      9538      9537      9539      9538      9537      9540      9539      9537      9540
      9541      9540      9542      9541      9540      9543      9542      9540      9543
      9544      9545      9546      9544      9545      9547      9544      9545      9560
      9544      9548      9549      9544      9548      9550      9544      9548      9551
      9544      9552      9553      9544      9552      9554      9544      9552      9555
      9544      9556      9557      9544      9556      9558      9544      9556      9559
      9545      9544      9548      9545      9544      9552      9545      9544      9556
      9545      9560      9561      9545      9560      9562      9545      9560      9566
      9546      9545      9547      9546      9545      9560      9547      9545      9560
      9548      9544      9552      9548      9544      9556      9549      9548      9550
      9549      9548      9551      9550      9548      9551      9552      9544      9556
      9553      9552      9554      9553      9552      9555      9554      9552      9555
      9557      9556      9558      9557      9556      9559      9558      9556      9559
      9560      9566      9563      9561      9560      9562      9561      9560      9566
      9562      9560      9566      9563      9567      9568      9564      9563      9565
      9564      9563      9566      9564      9563      9567      9565      9563      9566
      9565      9563      9567      9566      9563      9567      9567      9568      9569
      9567      9568      9570      9567      9568      9571      9568      9571      9572
      9568      9571      9573      9568      9571      9579      9569      9568      9570
      9569      9568      9571      9570      9568      9571      9571      9573      9574
      9571      9579      9580      9571      9579      9581      9571      9579      9582
      9572      9571      9573      9572      9571      9579      9573      9571      9579
      9573      9574      9575      9573      9574      9576      9574      9576      9577
      9574      9576      9578      9574      9576      9588      9575      9574      9576
      9576      9588      9589      9576      9588      9590      9576      9588      9591
      9577      9576      9578      9577      9576      9588      9578      9576      9588
      9579      9582      9583      9580      9579      9581      9580      9579      9582
      9581      9579      9582      9582      9583      9584      9582      9583      9585
      9583      9585      9586      9583      9585      9587      9583      9585      9635
      9584      9583      9585      9585      9635      9636      9585      9635      9637
      9585      9635      9638      9586      9585      9587      9586      9585      9635
      9587      9585      9635      9588      9591      9592      9588      9591      9593
      9588      9591      9594      9589      9588      9590      9589      9588      9591
      9590      9588      9591      9591      9594      9595      9591      9594      9596
      9591      9594      9597      9592      9591      9593      9592      9591      9594
      9593      9591      9594      9594      9597      9598      9594      9597      9599
      9594      9597      9600      9595      9594      9596      9595      9594      9597
      9596      9594      9597      9597      9600      9601      9597      9600      9602
      9597      9600      9603      9598      9597      9599      9598      9597      9600
      9599      9597      9600      9600      9603      9604      9600      9603      9605
      9600      9603      9606      9601      9600      9602      9601      9600      9603
      9602      9600      9603      9603      9606      9607      9603      9606      9608
      9604      9603      9605      9604      9603      9606      9605      9603      9606
      9606      9608      9609      9606      9608      9610      9607      9606      9608
      9608      9610      9611      9608      9610      9612      9608      9610      9613
      9609      9608      9610      9610      9613      9614      9610      9613      9615
      9610      9613      9616      9611      9610      9612      9611      9610      9613
      9612      9610      9613      9613      9616      9617      9613      9616      9618
      9613      9616      9619      9614      9613      9615      9614      9613      9616
      9615      9613      9616      9616      9619      9620      9616      9619      9621
      9616      9619      9622      9617      9616      9618      9617      9616      9619
      9618      9616      9619      9619      9622      9623      9619      9622      9624
      9619      9622      9625      9620      9619      9621      9620      9619      9622
      9621      9619      9622      9622      9625      9626      9622      9625      9627
      9622      9625      9628      9623      9622      9624      9623      9622      9625
      9624      9622      9625      9625      9628      9629      9625      9628      9630
      9625      9628      9631      9626      9625      9627      9626      9625      9628
      9627      9625      9628      9628      9631      9632      9628      9631      9633
      9628      9631      9634      9629      9628      9630      9629      9628      9631
      9630      9628      9631      9632      9631      9633      9632      9631      9634
      9633      9631      9634      9635      9638      9639      9635      9638      9640
      9635      9638      9641      9636      9635      9637      9636      9635      9638
      9637      9635      9638      9638      9641      9642      9638      9641      9643
      9638      9641      9644      9639      9638      9640      9639      9638      9641
      9640      9638      9641      9641      9644      9645      9641      9644      9646
      9641      9644      9647      9642      9641      9643      9642      9641      9644
      9643      9641      9644      9644      9647      9648      9644      9647      9649
      9644      9647      9650      9645      9644      9646      9645      9644      9647
      9646      9644      9647      9647      9650      9651      9647      9650      9652
      9647      9650      9653      9648      9647      9649      9648      9647      9650
      9649      9647      9650      9650      9653      9654      9650      9653      9655
      9650      9653      9656      9651      9650      9652      9651      9650      9653
      9652      9650      9653      9653      9656      9657      9653      9656      9658
      9653      9656      9659      9654      9653      9655      9654      9653      9656
      9655      9653      9656      9656      9659      9660      9656      9659      9661
      9656      9659      9662      9657      9656      9658      9657      9656      9659
      9658      9656      9659      9659      9662      9663      9659      9662      9664
      9659      9662      9665      9660      9659      9661      9660      9659      9662
      9661      9659      9662      9662      9665      9666      9662      9665      9667
      9662      9665      9668      9663      9662      9664      9663      9662      9665
      9664      9662      9665      9665      9668      9669      9665      9668      9670
      9665      9668      9671      9666      9665      9667      9666      9665      9668
      9667      9665      9668      9668      9671      9672      9668      9671      9673
      9668      9671      9674      9669      9668      9670      9669      9668      9671
      9670      9668      9671      9671      9674      9675      9671      9674      9676
      9671      9674      9677      9672      9671      9673      9672      9671      9674
      9673      9671      9674      9675      9674      9676      9675      9674      9677
      9676      9674      9677      9678      9679      9680      9678      9679      9681
      9678      9679      9694      9678      9682      9683      9678      9682      9684
      9678      9682      9685      9678      9686      9687      9678      9686      9688
      9678      9686      9689      9678      9690      9691      9678      9690      9692
      9678      9690      9693      9679      9678      9682      9679      9678      9686
      9679      9678      9690      9679      9694      9695      9679      9694      9696
      9679      9694      9700      9680      9679      9681      9680      9679      9694
      9681      9679      9694      9682      9678      9686      9682      9678      9690
      9683      9682      9684      9683      9682      9685      9684      9682      9685
      9686      9678      9690      9687      9686      9688      9687      9686      9689
      9688      9686      9689      9691      9690      9692      9691      9690      9693
      9692      9690      9693      9694      9700      9697      9695      9694      9696
      9695      9694      9700      9696      9694      9700      9697      9701      9702
      9698      9697      9699      9698      9697      9700      9698      9697      9701
      9699      9697      9700      9699      9697      9701      9700      9697      9701
      9701      9702      9703      9701      9702      9704      9701      9702      9705
      9702      9705      9706      9702      9705      9707      9702      9705      9713
      9703      9702      9704      9703      9702      9705      9704      9702      9705
      9705      9707      9708      9705      9713      9714      9705      9713      9715
      9705      9713      9716      9706      9705      9707      9706      9705      9713
      9707      9705      9713      9707      9708      9709      9707      9708      9710
      9708      9710      9711      9708      9710      9712      9708      9710      9722
      9709      9708      9710      9710      9722      9723      9710      9722      9724
      9710      9722      9725      9711      9710      9712      9711      9710      9722
      9712      9710      9722      9713      9716      9717      9714      9713      9715
      9714      9713      9716      9715      9713      9716      9716      9717      9718
      9716      9717      9719      9717      9719      9720      9717      9719      9721
      9717      9719      9769      9718      9717      9719      9719      9769      9770
      9719      9769      9771      9719      9769      9772      9720      9719      9721
      9720      9719      9769      9721      9719      9769      9722      9725      9726
      9722      9725      9727      9722      9725      9728      9723      9722      9724
      9723      9722      9725      9724      9722      9725      9725      9728      9729
      9725      9728      9730      9725      9728      9731      9726      9725      9727
      9726      9725      9728      9727      9725      9728      9728      9731      9732
      9728      9731      9733      9728      9731      9734      9729      9728      9730
      9729      9728      9731      9730      9728      9731      9731      9734      9735
      9731      9734      9736      9731      9734      9737      9732      9731      9733
      9732      9731      9734      9733      9731      9734      9734      9737      9738
      9734      9737      9739      9734      9737      9740      9735      9734      9736
      9735      9734      9737      9736      9734      9737      9737      9740      9741
      9737      9740      9742      9738      9737      9739      9738      9737      9740
      9739      9737      9740      9740      9742      9743      9740      9742      9744
      9741      9740      9742      9742      9744      9745      9742      9744      9746
      9742      9744      9747      9743      9742      9744      9744      9747      9748
      9744      9747      9749      9744      9747      9750      9745      9744      9746
      9745      9744      9747      9746      9744      9747      9747      9750      9751
      9747      9750      9752      9747      9750      9753      9748      9747      9749
      9748      9747      9750      9749      9747      9750      9750      9753      9754
      9750      9753      9755      9750      9753      9756      9751      9750      9752
      9751      9750      9753      9752      9750      9753      9753      9756      9757
      9753      9756      9758      9753      9756      9759      9754      9753      9755
      9754      9753      9756      9755      9753      9756      9756      9759      9760
      9756      9759      9761      9756      9759      9762      9757      9756      9758
      9757      9756      9759      9758      9756      9759      9759      9762      9763
      9759      9762      9764      9759      9762      9765      9760      9759      9761
      9760      9759      9762      9761      9759      9762      9762      9765      9766
      9762      9765      9767      9762      9765      9768      9763      9762      9764
      9763      9762      9765      9764      9762      9765      9766      9765      9767
      9766      9765      9768      9767      9765      9768      9769      9772      9773
      9769      9772      9774      9769      9772      9775      9770      9769      9771
      9770      9769      9772      9771      9769      9772      9772      9775      9776
      9772      9775      9777      9772      9775      9778      9773      9772      9774
      9773      9772      9775      9774      9772      9775      9775      9778      9779
      9775      9778      9780      9775      9778      9781      9776      9775      9777
      9776      9775      9778      9777      9775      9778      9778      9781      9782
      9778      9781      9783      9778      9781      9784      9779      9778      9780
      9779      9778      9781      9780      9778      9781      9781      9784      9785
      9781      9784      9786      9781      9784      9787      9782      9781      9783
      9782      9781      9784      9783      9781      9784      9784      9787      9788
      9784      9787      9789      9784      9787      9790      9785      9784      9786
      9785      9784      9787      9786      9784      9787      9787      9790      9791
      9787      9790      9792      9787      9790      9793      9788      9787      9789
      9788      9787      9790      9789      9787      9790      9790      9793      9794
      9790      9793      9795      9790      9793      9796      9791      9790      9792
      9791      9790      9793      9792      9790      9793      9793      9796      9797
      9793      9796      9798      9793      9796      9799      9794      9793      9795
      9794      9793      9796      9795      9793      9796      9796      9799      9800
      9796      9799      9801      9796      9799      9802      9797      9796      9798
      9797      9796      9799      9798      9796      9799      9799      9802      9803
      9799      9802      9804      9799      9802      9805      9800      9799      9801
      9800      9799      9802      9801      9799      9802      9802      9805      9806
      9802      9805      9807      9802      9805      9808      9803      9802      9804
      9803      9802      9805      9804      9802      9805      9805      9808      9809
      9805      9808      9810      9805      9808      9811      9806      9805      9807
      9806      9805      9808      9807      9805      9808      9809      9808      9810
      9809      9808      9811      9810      9808      9811      9812      9813      9814
      9812      9813      9815      9812      9813      9828      9812      9816      9817
      9812      9816      9818      9812      9816      9819      9812      9820      9821
      9812      9820      9822      9812      9820      9823      9812      9824      9825
      9812      9824      9826      9812      9824      9827      9813      9812      9816
      9813      9812      9820      9813      9812      9824      9813      9828      9829
      9813      9828      9830      9813      9828      9834      9814      9813      9815
      9814      9813      9828      9815      9813      9828      9816      9812      9820
      9816      9812      9824      9817      9816      9818      9817      9816      9819
      9818      9816      9819      9820      9812      9824      9821      9820      9822
      9821      9820      9823      9822      9820      9823      9825      9824      9826
      9825      9824      9827      9826      9824      9827      9828      9834      9831
      9829      9828      9830      9829      9828      9834      9830      9828      9834
      9831      9835      9836      9832      9831      9833      9832      9831      9834
      9832      9831      9835      9833      9831      9834      9833      9831      9835
      9834      9831      9835      9835      9836      9837      9835      9836      9838
      9835      9836      9839      9836      9839      9840      9836      9839      9841
      9836      9839      9847      9837      9836      9838      9837      9836      9839
      9838      9836      9839      9839      9841      9842      9839      9847      9848
      9839      9847      9849      9839      9847      9850      9840      9839      9841
      9840      9839      9847      9841      9839      9847      9841      9842      9843
      9841      9842      9844      9842      9844      9845      9842      9844      9846
      9842      9844      9856      9843      9842      9844      9844      9856      9857
      9844      9856      9858      9844      9856      9859      9845      9844      9846
      9845      9844      9856      9846      9844      9856      9847      9850      9851
      9848      9847      9849      9848      9847      9850      9849      9847      9850
      9850      9851      9852      9850      9851      9853      9851      9853      9854
      9851      9853      9855      9851      9853      9903      9852      9851      9853
      9853      9903      9904      9853      9903      9905      9853      9903      9906
      9854      9853      9855      9854      9853      9903      9855      9853      9903
      9856      9859      9860      9856      9859      9861      9856      9859      9862
      9857      9856      9858      9857      9856      9859      9858      9856      9859
      9859      9862      9863      9859      9862      9864      9859      9862      9865
      9860      9859      9861      9860      9859      9862      9861      9859      9862
      9862      9865      9866      9862      9865      9867      9862      9865      9868
      9863      9862      9864      9863      9862      9865      9864      9862      9865
      9865      9868      9869      9865      9868      9870      9865      9868      9871
      9866      9865      9867      9866      9865      9868      9867      9865      9868
      9868      9871      9872      9868      9871      9873      9868      9871      9874
      9869      9868      9870      9869      9868      9871      9870      9868      9871
      9871      9874      9875      9871      9874      9876      9872      9871      9873
      9872      9871      9874      9873      9871      9874      9874      9876      9877
      9874      9876      9878      9875      9874      9876      9876      9878      9879
      9876      9878      9880      9876      9878      9881      9877      9876      9878
      9878      9881      9882      9878      9881      9883      9878      9881      9884
      9879      9878      9880      9879      9878      9881      9880      9878      9881
      9881      9884      9885      9881      9884      9886      9881      9884      9887
      9882      9881      9883      9882      9881      9884      9883      9881      9884
      9884      9887      9888      9884      9887      9889      9884      9887      9890
      9885      9884      9886      9885      9884      9887      9886      9884      9887
      9887      9890      9891      9887      9890      9892      9887      9890      9893
      9888      9887      9889      9888      9887      9890      9889      9887      9890
      9890      9893      9894      9890      9893      9895      9890      9893      9896
      9891      9890      9892      9891      9890      9893      9892      9890      9893
      9893      9896      9897      9893      9896      9898      9893      9896      9899
      9894      9893      9895      9894      9893      9896      9895      9893      9896
      9896      9899      9900      9896      9899      9901      9896      9899      9902
      9897      9896      9898      9897      9896      9899      9898      9896      9899
      9900      9899      9901      9900      9899      9902      9901      9899      9902
      9903      9906      9907      9903      9906      9908      9903      9906      9909
      9904      9903      9905      9904      9903      9906      9905      9903      9906
      9906      9909      9910      9906      9909      9911      9906      9909      9912
      9907      9906      9908      9907      9906      9909      9908      9906      9909
      9909      9912      9913      9909      9912      9914      9909      9912      9915
      9910      9909      9911      9910      9909      9912      9911      9909      9912
      9912      9915      9916      9912      9915      9917      9912      9915      9918
      9913      9912      9914      9913      9912      9915      9914      9912      9915
      9915      9918      9919      9915      9918      9920      9915      9918      9921
      9916      9915      9917      9916      9915      9918      9917      9915      9918
      9918      9921      9922      9918      9921      9923      9918      9921      9924
      9919      9918      9920      9919      9918      9921      9920      9918      9921
      9921      9924      9925      9921      9924      9926      9921      9924      9927
      9922      9921      9923      9922      9921      9924      9923      9921      9924
      9924      9927      9928      9924      9927      9929      9924      9927      9930
      9925      9924      9926      9925      9924      9927      9926      9924      9927
      9927      9930      9931      9927      9930      9932      9927      9930      9933
      9928      9927      9929      9928      9927      9930      9929      9927      9930
      9930      9933      9934      9930      9933      9935      9930      9933      9936
      9931      9930      9932      9931      9930      9933      9932      9930      9933
      9933      9936      9937      9933      9936      9938      9933      9936      9939
      9934      9933      9935      9934      9933      9936      9935      9933      9936
      9936      9939      9940      9936      9939      9941      9936      9939      9942
      9937      9936      9938      9937      9936      9939      9938      9936      9939
      9939      9942      9943      9939      9942      9944      9939      9942      9945
      9940      9939      9941      9940      9939      9942      9941      9939      9942
      9943      9942      9944      9943      9942      9945      9944      9942      9945
      9946      9950      9951      9946      9950      9952      9946      9950      9955
      9947      9946      9948      9947      9946      9949      9947      9946      9950
      9948      9946      9949      9948      9946      9950      9949      9946      9950
      9950      9952      9953      9950      9952      9954      9950      9955      9956
      9950      9955      9957      9950      9955      9961      9951      9950      9952
      9951      9950      9955      9952      9950      9955      9953      9952      9954
      9955      9961      9958      9956      9955      9957      9956      9955      9961
      9957      9955      9961      9958      9962      9963      9959      9958      9960
      9959      9958      9961      9959      9958      9962      9960      9958      9961
      9960      9958      9962      9961      9958      9962      9962      9963      9964
      9962      9963      9965      9962      9963      9966      9963      9966      9967
      9963      9966      9968      9963      9966      9974      9964      9963      9965
      9964      9963      9966      9965      9963      9966      9966      9968      9969
      9966      9974      9975      9966      9974      9976      9966      9974      9977
      9967      9966      9968      9967      9966      9974      9968      9966      9974
      9968      9969      9970      9968      9969      9971      9969      9971      9972
      9969      9971      9973      9969      9971      9983      9970      9969      9971
      9971      9983      9984      9971      9983      9985      9971      9983      9986
      9972      9971      9973      9972      9971      9983      9973      9971      9983
      9974      9977      9978      9975      9974      9976      9975      9974      9977
      9976      9974      9977      9977      9978      9979      9977      9978      9980
      9978      9980      9981      9978      9980      9982      9978      9980     10030
      9979      9978      9980      9980     10030     10031      9980     10030     10032
      9980     10030     10033      9981      9980      9982      9981      9980     10030
      9982      9980     10030      9983      9986      9987      9983      9986      9988
      9983      9986      9989      9984      9983      9985      9984      9983      9986
      9985      9983      9986      9986      9989      9990      9986      9989      9991
      9986      9989      9992      9987      9986      9988      9987      9986      9989
      9988      9986      9989      9989      9992      9993      9989      9992      9994
      9989      9992      9995      9990      9989      9991      9990      9989      9992
      9991      9989      9992      9992      9995      9996      9992      9995      9997
      9992      9995      9998      9993      9992      9994      9993      9992      9995
      9994      9992      9995      9995      9998      9999      9995      9998     10000
      9995      9998     10001      9996      9995      9997      9996      9995      9998
      9997      9995      9998      9998     10001     10002      9998     10001     10003
      9999      9998     10000      9999      9998     10001     10000      9998     10001
     10001     10003     10004     10001     10003     10005     10002     10001     10003
     10003     10005     10006     10003     10005     10007     10003     10005     10008
     10004     10003     10005     10005     10008     10009     10005     10008     10010
     10005     10008     10011     10006     10005     10007     10006     10005     10008
     10007     10005     10008     10008     10011     10012     10008     10011     10013
     10008     10011     10014     10009     10008     10010     10009     10008     10011
     10010     10008     10011     10011     10014     10015     10011     10014     10016
     10011     10014     10017     10012     10011     10013     10012     10011     10014
     10013     10011     10014     10014     10017     10018     10014     10017     10019
     10014     10017     10020     10015     10014     10016     10015     10014     10017
     10016     10014     10017     10017     10020     10021     10017     10020     10022
     10017     10020     10023     10018     10017     10019     10018     10017     10020
     10019     10017     10020     10020     10023     10024     10020     10023     10025
     10020     10023     10026     10021     10020     10022     10021     10020     10023
     10022     10020     10023     10023     10026     10027     10023     10026     10028
     10023     10026     10029     10024     10023     10025     10024     10023     10026
     10025     10023     10026     10027     10026     10028     10027     10026     10029
     10028     10026     10029     10030     10033     10034     10030     10033     10035
     10030     10033     10036     10031     10030     10032     10031     10030     10033
     10032     10030     10033     10033     10036     10037     10033     10036     10038
     10033     10036     10039     10034     10033     10035     10034     10033     10036
     10035     10033     10036     10036     10039     10040     10036     10039     10041
     10036     10039     10042     10037     10036     10038     10037     10036     10039
     10038     10036     10039     10039     10042     10043     10039     10042     10044
     10039     10042     10045     10040     10039     10041     10040     10039     10042
     10041     10039     10042     10042     10045     10046     10042     10045     10047
     10042     10045     10048     10043     10042     10044     10043     10042     10045
     10044     10042     10045     10045     10048     10049     10045     10048     10050
     10045     10048     10051     10046     10045     10047     10046     10045     10048
     10047     10045     10048     10048     10051     10052     10048     10051     10053
     10048     10051     10054     10049     10048     10050     10049     10048     10051
     10050     10048     10051     10051     10054     10055     10051     10054     10056
     10051     10054     10057     10052     10051     10053     10052     10051     10054
     10053     10051     10054     10054     10057     10058     10054     10057     10059
     10054     10057     10060     10055     10054     10056     10055     10054     10057
     10056     10054     10057     10057     10060     10061     10057     10060     10062
     10057     10060     10063     10058     10057     10059     10058     10057     10060
     10059     10057     10060     10060     10063     10064     10060     10063     10065
     10060     10063     10066     10061     10060     10062     10061     10060     10063
     10062     10060     10063     10063     10066     10067     10063     10066     10068
     10063     10066     10069     10064     10063     10065     10064     10063     10066
     10065     10063     10066     10066     10069     10070     10066     10069     10071
     10066     10069     10072     10067     10066     10068     10067     10066     10069
     10068     10066     10069     10070     10069     10071     10070     10069     10072
     10071     10069     10072     10073     10074     10075     10073     10074     10076
     10073     10074     10089     10073     10077     10078     10073     10077     10079
     10073     10077     10080     10073     10081     10082     10073     10081     10083
     10073     10081     10084     10073     10085     10086     10073     10085     10087
     10073     10085     10088     10074     10073     10077     10074     10073     10081
     10074     10073     10085     10074     10089     10090     10074     10089     10091
     10074     10089     10095     10075     10074     10076     10075     10074     10089
     10076     10074     10089     10077     10073     10081     10077     10073     10085
     10078     10077     10079     10078     10077     10080     10079     10077     10080
     10081     10073     10085     10082     10081     10083     10082     10081     10084
     10083     10081     10084     10086     10085     10087     10086     10085     10088
     10087     10085     10088     10089     10095     10092     10090     10089     10091
     10090     10089     10095     10091     10089     10095     10092     10096     10097
     10093     10092     10094     10093     10092     10095     10093     10092     10096
     10094     10092     10095     10094     10092     10096     10095     10092     10096
     10096     10097     10098     10096     10097     10099     10096     10097     10100
     10097     10100     10101     10097     10100     10102     10097     10100     10108
     10098     10097     10099     10098     10097     10100     10099     10097     10100
     10100     10102     10103     10100     10108     10109     10100     10108     10110
     10100     10108     10111     10101     10100     10102     10101     10100     10108
     10102     10100     10108     10102     10103     10104     10102     10103     10105
     10103     10105     10106     10103     10105     10107     10103     10105     10117
     10104     10103     10105     10105     10117     10118     10105     10117     10119
     10105     10117     10120     10106     10105     10107     10106     10105     10117
     10107     10105     10117     10108     10111     10112     10109     10108     10110
     10109     10108     10111     10110     10108     10111     10111     10112     10113
     10111     10112     10114     10112     10114     10115     10112     10114     10116
     10112     10114     10164     10113     10112     10114     10114     10164     10165
     10114     10164     10166     10114     10164     10167     10115     10114     10116
     10115     10114     10164     10116     10114     10164     10117     10120     10121
     10117     10120     10122     10117     10120     10123     10118     10117     10119
     10118     10117     10120     10119     10117     10120     10120     10123     10124
     10120     10123     10125     10120     10123     10126     10121     10120     10122
     10121     10120     10123     10122     10120     10123     10123     10126     10127
     10123     10126     10128     10123     10126     10129     10124     10123     10125
     10124     10123     10126     10125     10123     10126     10126     10129     10130
     10126     10129     10131     10126     10129     10132     10127     10126     10128
     10127     10126     10129     10128     10126     10129     10129     10132     10133
     10129     10132     10134     10129     10132     10135     10130     10129     10131
     10130     10129     10132     10131     10129     10132     10132     10135     10136
     10132     10135     10137     10133     10132     10134     10133     10132     10135
     10134     10132     10135     10135     10137     10138     10135     10137     10139
     10136     10135     10137     10137     10139     10140     10137     10139     10141
     10137     10139     10142     10138     10137     10139     10139     10142     10143
     10139     10142     10144     10139     10142     10145     10140     10139     10141
     10140     10139     10142     10141     10139     10142     10142     10145     10146
     10142     10145     10147     10142     10145     10148     10143     10142     10144
     10143     10142     10145     10144     10142     10145     10145     10148     10149
     10145     10148     10150     10145     10148     10151     10146     10145     10147
     10146     10145     10148     10147     10145     10148     10148     10151     10152
     10148     10151     10153     10148     10151     10154     10149     10148     10150
     10149     10148     10151     10150     10148     10151     10151     10154     10155
     10151     10154     10156     10151     10154     10157     10152     10151     10153
     10152     10151     10154     10153     10151     10154     10154     10157     10158
     10154     10157     10159     10154     10157     10160     10155     10154     10156
     10155     10154     10157     10156     10154     10157     10157     10160     10161
     10157     10160     10162     10157     10160     10163     10158     10157     10159
     10158     10157     10160     10159     10157     10160     10161     10160     10162
     10161     10160     10163     10162     10160     10163     10164     10167     10168
     10164     10167     10169     10164     10167     10170     10165     10164     10166
     10165     10164     10167     10166     10164     10167     10167     10170     10171
     10167     10170     10172     10167     10170     10173     10168     10167     10169
     10168     10167     10170     10169     10167     10170     10170     10173     10174
     10170     10173     10175     10170     10173     10176     10171     10170     10172
     10171     10170     10173     10172     10170     10173     10173     10176     10177
     10173     10176     10178     10173     10176     10179     10174     10173     10175
     10174     10173     10176     10175     10173     10176     10176     10179     10180
     10176     10179     10181     10176     10179     10182     10177     10176     10178
     10177     10176     10179     10178     10176     10179     10179     10182     10183
     10179     10182     10184     10179     10182     10185     10180     10179     10181
     10180     10179     10182     10181     10179     10182     10182     10185     10186
     10182     10185     10187     10182     10185     10188     10183     10182     10184
     10183     10182     10185     10184     10182     10185     10185     10188     10189
     10185     10188     10190     10185     10188     10191     10186     10185     10187
     10186     10185     10188     10187     10185     10188     10188     10191     10192
     10188     10191     10193     10188     10191     10194     10189     10188     10190
     10189     10188     10191     10190     10188     10191     10191     10194     10195
     10191     10194     10196     10191     10194     10197     10192     10191     10193
     10192     10191     10194     10193     10191     10194     10194     10197     10198
     10194     10197     10199     10194     10197     10200     10195     10194     10196
     10195     10194     10197     10196     10194     10197     10197     10200     10201
     10197     10200     10202     10197     10200     10203     10198     10197     10199
     10198     10197     10200     10199     10197     10200     10200     10203     10204
     10200     10203     10205     10200     10203     10206     10201     10200     10202
     10201     10200     10203     10202     10200     10203     10204     10203     10205
     10204     10203     10206     10205     10203     10206     10207     10211     10212
     10207     10211     10213     10207     10211     10216     10208     10207     10209
     10208     10207     10210     10208     10207     10211     10209     10207     10210
     10209     10207     10211     10210     10207     10211     10211     10213     10214
     10211     10213     10215     10211     10216     10217     10211     10216     10218
     10211     10216     10222     10212     10211     10213     10212     10211     10216
     10213     10211     10216     10214     10213     10215     10216     10222     10219
     10217     10216     10218     10217     10216     10222     10218     10216     10222
     10219     10223     10224     10220     10219     10221     10220     10219     10222
     10220     10219     10223     10221     10219     10222     10221     10219     10223
     10222     10219     10223     10223     10224     10225     10223     10224     10226
     10223     10224     10227     10224     10227     10228     10224     10227     10229
     10224     10227     10235     10225     10224     10226     10225     10224     10227
     10226     10224     10227     10227     10229     10230     10227     10235     10236
     10227     10235     10237     10227     10235     10238     10228     10227     10229
     10228     10227     10235     10229     10227     10235     10229     10230     10231
     10229     10230     10232     10230     10232     10233     10230     10232     10234
     10230     10232     10244     10231     10230     10232     10232     10244     10245
     10232     10244     10246     10232     10244     10247     10233     10232     10234
     10233     10232     10244     10234     10232     10244     10235     10238     10239
     10236     10235     10237     10236     10235     10238     10237     10235     10238
     10238     10239     10240     10238     10239     10241     10239     10241     10242
     10239     10241     10243     10239     10241     10291     10240     10239     10241
     10241     10291     10292     10241     10291     10293     10241     10291     10294
     10242     10241     10243     10242     10241     10291     10243     10241     10291
     10244     10247     10248     10244     10247     10249     10244     10247     10250
     10245     10244     10246     10245     10244     10247     10246     10244     10247
     10247     10250     10251     10247     10250     10252     10247     10250     10253
     10248     10247     10249     10248     10247     10250     10249     10247     10250
     10250     10253     10254     10250     10253     10255     10250     10253     10256
     10251     10250     10252     10251     10250     10253     10252     10250     10253
     10253     10256     10257     10253     10256     10258     10253     10256     10259
     10254     10253     10255     10254     10253     10256     10255     10253     10256
     10256     10259     10260     10256     10259     10261     10256     10259     10262
     10257     10256     10258     10257     10256     10259     10258     10256     10259
     10259     10262     10263     10259     10262     10264     10260     10259     10261
     10260     10259     10262     10261     10259     10262     10262     10264     10265
     10262     10264     10266     10263     10262     10264     10264     10266     10267
     10264     10266     10268     10264     10266     10269     10265     10264     10266
     10266     10269     10270     10266     10269     10271     10266     10269     10272
     10267     10266     10268     10267     10266     10269     10268     10266     10269
     10269     10272     10273     10269     10272     10274     10269     10272     10275
     10270     10269     10271     10270     10269     10272     10271     10269     10272
     10272     10275     10276     10272     10275     10277     10272     10275     10278
     10273     10272     10274     10273     10272     10275     10274     10272     10275
     10275     10278     10279     10275     10278     10280     10275     10278     10281
     10276     10275     10277     10276     10275     10278     10277     10275     10278
     10278     10281     10282     10278     10281     10283     10278     10281     10284
     10279     10278     10280     10279     10278     10281     10280     10278     10281
     10281     10284     10285     10281     10284     10286     10281     10284     10287
     10282     10281     10283     10282     10281     10284     10283     10281     10284
     10284     10287     10288     10284     10287     10289     10284     10287     10290
     10285     10284     10286     10285     10284     10287     10286     10284     10287
     10288     10287     10289     10288     10287     10290     10289     10287     10290
     10291     10294     10295     10291     10294     10296     10291     10294     10297
     10292     10291     10293     10292     10291     10294     10293     10291     10294
     10294     10297     10298     10294     10297     10299     10294     10297     10300
     10295     10294     10296     10295     10294     10297     10296     10294     10297
     10297     10300     10301     10297     10300     10302     10297     10300     10303
     10298     10297     10299     10298     10297     10300     10299     10297     10300
     10300     10303     10304     10300     10303     10305     10300     10303     10306
     10301     10300     10302     10301     10300     10303     10302     10300     10303
     10303     10306     10307     10303     10306     10308     10303     10306     10309
     10304     10303     10305     10304     10303     10306     10305     10303     10306
     10306     10309     10310     10306     10309     10311     10306     10309     10312
     10307     10306     10308     10307     10306     10309     10308     10306     10309
     10309     10312     10313     10309     10312     10314     10309     10312     10315
     10310     10309     10311     10310     10309     10312     10311     10309     10312
     10312     10315     10316     10312     10315     10317     10312     10315     10318
     10313     10312     10314     10313     10312     10315     10314     10312     10315
     10315     10318     10319     10315     10318     10320     10315     10318     10321
     10316     10315     10317     10316     10315     10318     10317     10315     10318
     10318     10321     10322     10318     10321     10323     10318     10321     10324
     10319     10318     10320     10319     10318     10321     10320     10318     10321
     10321     10324     10325     10321     10324     10326     10321     10324     10327
     10322     10321     10323     10322     10321     10324     10323     10321     10324
     10324     10327     10328     10324     10327     10329     10324     10327     10330
     10325     10324     10326     10325     10324     10327     10326     10324     10327
     10327     10330     10331     10327     10330     10332     10327     10330     10333
     10328     10327     10329     10328     10327     10330     10329     10327     10330
     10331     10330     10332     10331     10330     10333     10332     10330     10333
     10334     10338     10339     10334     10338     10340     10334     10338     10343
     10335     10334     10336     10335     10334     10337     10335     10334     10338
     10336     10334     10337     10336     10334     10338     10337     10334     10338
     10338     10340     10341     10338     10340     10342     10338     10343     10344
     10338     10343     10345     10338     10343     10349     10339     10338     10340
     10339     10338     10343     10340     10338     10343     10341     10340     10342
     10343     10349     10346     10344     10343     10345     10344     10343     10349
     10345     10343     10349     10346     10350     10351     10347     10346     10348
     10347     10346     10349     10347     10346     10350     10348     10346     10349
     10348     10346     10350     10349     10346     10350     10350     10351     10352
     10350     10351     10353     10350     10351     10354     10351     10354     10355
     10351     10354     10356     10351     10354     10362     10352     10351     10353
     10352     10351     10354     10353     10351     10354     10354     10356     10357
     10354     10362     10363     10354     10362     10364     10354     10362     10365
     10355     10354     10356     10355     10354     10362     10356     10354     10362
     10356     10357     10358     10356     10357     10359     10357     10359     10360
     10357     10359     10361     10357     10359     10371     10358     10357     10359
     10359     10371     10372     10359     10371     10373     10359     10371     10374
     10360     10359     10361     10360     10359     10371     10361     10359     10371
     10362     10365     10366     10363     10362     10364     10363     10362     10365
     10364     10362     10365     10365     10366     10367     10365     10366     10368
     10366     10368     10369     10366     10368     10370     10366     10368     10418
     10367     10366     10368     10368     10418     10419     10368     10418     10420
     10368     10418     10421     10369     10368     10370     10369     10368     10418
     10370     10368     10418     10371     10374     10375     10371     10374     10376
     10371     10374     10377     10372     10371     10373     10372     10371     10374
     10373     10371     10374     10374     10377     10378     10374     10377     10379
     10374     10377     10380     10375     10374     10376     10375     10374     10377
     10376     10374     10377     10377     10380     10381     10377     10380     10382
     10377     10380     10383     10378     10377     10379     10378     10377     10380
     10379     10377     10380     10380     10383     10384     10380     10383     10385
     10380     10383     10386     10381     10380     10382     10381     10380     10383
     10382     10380     10383     10383     10386     10387     10383     10386     10388
     10383     10386     10389     10384     10383     10385     10384     10383     10386
     10385     10383     10386     10386     10389     10390     10386     10389     10391
     10387     10386     10388     10387     10386     10389     10388     10386     10389
     10389     10391     10392     10389     10391     10393     10390     10389     10391
     10391     10393     10394     10391     10393     10395     10391     10393     10396
     10392     10391     10393     10393     10396     10397     10393     10396     10398
     10393     10396     10399     10394     10393     10395     10394     10393     10396
     10395     10393     10396     10396     10399     10400     10396     10399     10401
     10396     10399     10402     10397     10396     10398     10397     10396     10399
     10398     10396     10399     10399     10402     10403     10399     10402     10404
     10399     10402     10405     10400     10399     10401     10400     10399     10402
     10401     10399     10402     10402     10405     10406     10402     10405     10407
     10402     10405     10408     10403     10402     10404     10403     10402     10405
     10404     10402     10405     10405     10408     10409     10405     10408     10410
     10405     10408     10411     10406     10405     10407     10406     10405     10408
     10407     10405     10408     10408     10411     10412     10408     10411     10413
     10408     10411     10414     10409     10408     10410     10409     10408     10411
     10410     10408     10411     10411     10414     10415     10411     10414     10416
     10411     10414     10417     10412     10411     10413     10412     10411     10414
     10413     10411     10414     10415     10414     10416     10415     10414     10417
     10416     10414     10417     10418     10421     10422     10418     10421     10423
     10418     10421     10424     10419     10418     10420     10419     10418     10421
     10420     10418     10421     10421     10424     10425     10421     10424     10426
     10421     10424     10427     10422     10421     10423     10422     10421     10424
     10423     10421     10424     10424     10427     10428     10424     10427     10429
     10424     10427     10430     10425     10424     10426     10425     10424     10427
     10426     10424     10427     10427     10430     10431     10427     10430     10432
     10427     10430     10433     10428     10427     10429     10428     10427     10430
     10429     10427     10430     10430     10433     10434     10430     10433     10435
     10430     10433     10436     10431     10430     10432     10431     10430     10433
     10432     10430     10433     10433     10436     10437     10433     10436     10438
     10433     10436     10439     10434     10433     10435     10434     10433     10436
     10435     10433     10436     10436     10439     10440     10436     10439     10441
     10436     10439     10442     10437     10436     10438     10437     10436     10439
     10438     10436     10439     10439     10442     10443     10439     10442     10444
     10439     10442     10445     10440     10439     10441     10440     10439     10442
     10441     10439     10442     10442     10445     10446     10442     10445     10447
     10442     10445     10448     10443     10442     10444     10443     10442     10445
     10444     10442     10445     10445     10448     10449     10445     10448     10450
     10445     10448     10451     10446     10445     10447     10446     10445     10448
     10447     10445     10448     10448     10451     10452     10448     10451     10453
     10448     10451     10454     10449     10448     10450     10449     10448     10451
     10450     10448     10451     10451     10454     10455     10451     10454     10456
     10451     10454     10457     10452     10451     10453     10452     10451     10454
     10453     10451     10454     10454     10457     10458     10454     10457     10459
     10454     10457     10460     10455     10454     10456     10455     10454     10457
     10456     10454     10457     10458     10457     10459     10458     10457     10460
     10459     10457     10460     10461     10462     10463     10461     10462     10464
     10461     10462     10477     10461     10465     10466     10461     10465     10467
     10461     10465     10468     10461     10469     10470     10461     10469     10471
     10461     10469     10472     10461     10473     10474     10461     10473     10475
     10461     10473     10476     10462     10461     10465     10462     10461     10469
     10462     10461     10473     10462     10477     10478     10462     10477     10479
     10462     10477     10483     10463     10462     10464     10463     10462     10477
     10464     10462     10477     10465     10461     10469     10465     10461     10473
     10466     10465     10467     10466     10465     10468     10467     10465     10468
     10469     10461     10473     10470     10469     10471     10470     10469     10472
     10471     10469     10472     10474     10473     10475     10474     10473     10476
     10475     10473     10476     10477     10483     10480     10478     10477     10479
     10478     10477     10483     10479     10477     10483     10480     10484     10485
     10481     10480     10482     10481     10480     10483     10481     10480     10484
     10482     10480     10483     10482     10480     10484     10483     10480     10484
     10484     10485     10486     10484     10485     10487     10484     10485     10488
     10485     10488     10489     10485     10488     10490     10485     10488     10496
     10486     10485     10487     10486     10485     10488     10487     10485     10488
     10488     10490     10491     10488     10496     10497     10488     10496     10498
     10488     10496     10499     10489     10488     10490     10489     10488     10496
     10490     10488     10496     10490     10491     10492     10490     10491     10493
     10491     10493     10494     10491     10493     10495     10491     10493     10505
     10492     10491     10493     10493     10505     10506     10493     10505     10507
     10493     10505     10508     10494     10493     10495     10494     10493     10505
     10495     10493     10505     10496     10499     10500     10497     10496     10498
     10497     10496     10499     10498     10496     10499     10499     10500     10501
     10499     10500     10502     10500     10502     10503     10500     10502     10504
     10500     10502     10552     10501     10500     10502     10502     10552     10553
     10502     10552     10554     10502     10552     10555     10503     10502     10504
     10503     10502     10552     10504     10502     10552     10505     10508     10509
     10505     10508     10510     10505     10508     10511     10506     10505     10507
     10506     10505     10508     10507     10505     10508     10508     10511     10512
     10508     10511     10513     10508     10511     10514     10509     10508     10510
     10509     10508     10511     10510     10508     10511     10511     10514     10515
     10511     10514     10516     10511     10514     10517     10512     10511     10513
     10512     10511     10514     10513     10511     10514     10514     10517     10518
     10514     10517     10519     10514     10517     10520     10515     10514     10516
     10515     10514     10517     10516     10514     10517     10517     10520     10521
     10517     10520     10522     10517     10520     10523     10518     10517     10519
     10518     10517     10520     10519     10517     10520     10520     10523     10524
     10520     10523     10525     10521     10520     10522     10521     10520     10523
     10522     10520     10523     10523     10525     10526     10523     10525     10527
     10524     10523     10525     10525     10527     10528     10525     10527     10529
     10525     10527     10530     10526     10525     10527     10527     10530     10531
     10527     10530     10532     10527     10530     10533     10528     10527     10529
     10528     10527     10530     10529     10527     10530     10530     10533     10534
     10530     10533     10535     10530     10533     10536     10531     10530     10532
     10531     10530     10533     10532     10530     10533     10533     10536     10537
     10533     10536     10538     10533     10536     10539     10534     10533     10535
     10534     10533     10536     10535     10533     10536     10536     10539     10540
     10536     10539     10541     10536     10539     10542     10537     10536     10538
     10537     10536     10539     10538     10536     10539     10539     10542     10543
     10539     10542     10544     10539     10542     10545     10540     10539     10541
     10540     10539     10542     10541     10539     10542     10542     10545     10546
     10542     10545     10547     10542     10545     10548     10543     10542     10544
     10543     10542     10545     10544     10542     10545     10545     10548     10549
     10545     10548     10550     10545     10548     10551     10546     10545     10547
     10546     10545     10548     10547     10545     10548     10549     10548     10550
     10549     10548     10551     10550     10548     10551     10552     10555     10556
     10552     10555     10557     10552     10555     10558     10553     10552     10554
     10553     10552     10555     10554     10552     10555     10555     10558     10559
     10555     10558     10560     10555     10558     10561     10556     10555     10557
     10556     10555     10558     10557     10555     10558     10558     10561     10562
     10558     10561     10563     10558     10561     10564     10559     10558     10560
     10559     10558     10561     10560     10558     10561     10561     10564     10565
     10561     10564     10566     10561     10564     10567     10562     10561     10563
     10562     10561     10564     10563     10561     10564     10564     10567     10568
     10564     10567     10569     10564     10567     10570     10565     10564     10566
     10565     10564     10567     10566     10564     10567     10567     10570     10571
     10567     10570     10572     10567     10570     10573     10568     10567     10569
     10568     10567     10570     10569     10567     10570     10570     10573     10574
     10570     10573     10575     10570     10573     10576     10571     10570     10572
     10571     10570     10573     10572     10570     10573     10573     10576     10577
     10573     10576     10578     10573     10576     10579     10574     10573     10575
     10574     10573     10576     10575     10573     10576     10576     10579     10580
     10576     10579     10581     10576     10579     10582     10577     10576     10578
     10577     10576     10579     10578     10576     10579     10579     10582     10583
     10579     10582     10584     10579     10582     10585     10580     10579     10581
     10580     10579     10582     10581     10579     10582     10582     10585     10586
     10582     10585     10587     10582     10585     10588     10583     10582     10584
     10583     10582     10585     10584     10582     10585     10585     10588     10589
     10585     10588     10590     10585     10588     10591     10586     10585     10587
     10586     10585     10588     10587     10585     10588     10588     10591     10592
     10588     10591     10593     10588     10591     10594     10589     10588     10590
     10589     10588     10591     10590     10588     10591     10592     10591     10593
     10592     10591     10594     10593     10591     10594     10595     10596     10597
     10595     10596     10598     10595     10596     10611     10595     10599     10600
     10595     10599     10601     10595     10599     10602     10595     10603     10604
     10595     10603     10605     10595     10603     10606     10595     10607     10608
     10595     10607     10609     10595     10607     10610     10596     10595     10599
     10596     10595     10603     10596     10595     10607     10596     10611     10612
     10596     10611     10613     10596     10611     10617     10597     10596     10598
     10597     10596     10611     10598     10596     10611     10599     10595     10603
     10599     10595     10607     10600     10599     10601     10600     10599     10602
     10601     10599     10602     10603     10595     10607     10604     10603     10605
     10604     10603     10606     10605     10603     10606     10608     10607     10609
     10608     10607     10610     10609     10607     10610     10611     10617     10614
     10612     10611     10613     10612     10611     10617     10613     10611     10617
     10614     10618     10619     10615     10614     10616     10615     10614     10617
     10615     10614     10618     10616     10614     10617     10616     10614     10618
     10617     10614     10618     10618     10619     10620     10618     10619     10621
     10618     10619     10622     10619     10622     10623     10619     10622     10624
     10619     10622     10630     10620     10619     10621     10620     10619     10622
     10621     10619     10622     10622     10624     10625     10622     10630     10631
     10622     10630     10632     10622     10630     10633     10623     10622     10624
     10623     10622     10630     10624     10622     10630     10624     10625     10626
     10624     10625     10627     10625     10627     10628     10625     10627     10629
     10625     10627     10639     10626     10625     10627     10627     10639     10640
     10627     10639     10641     10627     10639     10642     10628     10627     10629
     10628     10627     10639     10629     10627     10639     10630     10633     10634
     10631     10630     10632     10631     10630     10633     10632     10630     10633
     10633     10634     10635     10633     10634     10636     10634     10636     10637
     10634     10636     10638     10634     10636     10686     10635     10634     10636
     10636     10686     10687     10636     10686     10688     10636     10686     10689
     10637     10636     10638     10637     10636     10686     10638     10636     10686
     10639     10642     10643     10639     10642     10644     10639     10642     10645
     10640     10639     10641     10640     10639     10642     10641     10639     10642
     10642     10645     10646     10642     10645     10647     10642     10645     10648
     10643     10642     10644     10643     10642     10645     10644     10642     10645
     10645     10648     10649     10645     10648     10650     10645     10648     10651
     10646     10645     10647     10646     10645     10648     10647     10645     10648
     10648     10651     10652     10648     10651     10653     10648     10651     10654
     10649     10648     10650     10649     10648     10651     10650     10648     10651
     10651     10654     10655     10651     10654     10656     10651     10654     10657
     10652     10651     10653     10652     10651     10654     10653     10651     10654
     10654     10657     10658     10654     10657     10659     10655     10654     10656
     10655     10654     10657     10656     10654     10657     10657     10659     10660
     10657     10659     10661     10658     10657     10659     10659     10661     10662
     10659     10661     10663     10659     10661     10664     10660     10659     10661
     10661     10664     10665     10661     10664     10666     10661     10664     10667
     10662     10661     10663     10662     10661     10664     10663     10661     10664
     10664     10667     10668     10664     10667     10669     10664     10667     10670
     10665     10664     10666     10665     10664     10667     10666     10664     10667
     10667     10670     10671     10667     10670     10672     10667     10670     10673
     10668     10667     10669     10668     10667     10670     10669     10667     10670
     10670     10673     10674     10670     10673     10675     10670     10673     10676
     10671     10670     10672     10671     10670     10673     10672     10670     10673
     10673     10676     10677     10673     10676     10678     10673     10676     10679
     10674     10673     10675     10674     10673     10676     10675     10673     10676
     10676     10679     10680     10676     10679     10681     10676     10679     10682
     10677     10676     10678     10677     10676     10679     10678     10676     10679
     10679     10682     10683     10679     10682     10684     10679     10682     10685
     10680     10679     10681     10680     10679     10682     10681     10679     10682
     10683     10682     10684     10683     10682     10685     10684     10682     10685
     10686     10689     10690     10686     10689     10691     10686     10689     10692
     10687     10686     10688     10687     10686     10689     10688     10686     10689
     10689     10692     10693     10689     10692     10694     10689     10692     10695
     10690     10689     10691     10690     10689     10692     10691     10689     10692
     10692     10695     10696     10692     10695     10697     10692     10695     10698
     10693     10692     10694     10693     10692     10695     10694     10692     10695
     10695     10698     10699     10695     10698     10700     10695     10698     10701
     10696     10695     10697     10696     10695     10698     10697     10695     10698
     10698     10701     10702     10698     10701     10703     10698     10701     10704
     10699     10698     10700     10699     10698     10701     10700     10698     10701
     10701     10704     10705     10701     10704     10706     10701     10704     10707
     10702     10701     10703     10702     10701     10704     10703     10701     10704
     10704     10707     10708     10704     10707     10709     10704     10707     10710
     10705     10704     10706     10705     10704     10707     10706     10704     10707
     10707     10710     10711     10707     10710     10712     10707     10710     10713
     10708     10707     10709     10708     10707     10710     10709     10707     10710
     10710     10713     10714     10710     10713     10715     10710     10713     10716
     10711     10710     10712     10711     10710     10713     10712     10710     10713
     10713     10716     10717     10713     10716     10718     10713     10716     10719
     10714     10713     10715     10714     10713     10716     10715     10713     10716
     10716     10719     10720     10716     10719     10721     10716     10719     10722
     10717     10716     10718     10717     10716     10719     10718     10716     10719
     10719     10722     10723     10719     10722     10724     10719     10722     10725
     10720     10719     10721     10720     10719     10722     10721     10719     10722
     10722     10725     10726     10722     10725     10727     10722     10725     10728
     10723     10722     10724     10723     10722     10725     10724     10722     10725
     10726     10725     10727     10726     10725     10728     10727     10725     10728
     10729     10733     10734     10729     10733     10735     10729     10733     10738
     10730     10729     10731     10730     10729     10732     10730     10729     10733
     10731     10729     10732     10731     10729     10733     10732     10729     10733
     10733     10735     10736     10733     10735     10737     10733     10738     10739
     10733     10738     10740     10733     10738     10744     10734     10733     10735
     10734     10733     10738     10735     10733     10738     10736     10735     10737
     10738     10744     10741     10739     10738     10740     10739     10738     10744
     10740     10738     10744     10741     10745     10746     10742     10741     10743
     10742     10741     10744     10742     10741     10745     10743     10741     10744
     10743     10741     10745     10744     10741     10745     10745     10746     10747
     10745     10746     10748     10745     10746     10749     10746     10749     10750
     10746     10749     10751     10746     10749     10757     10747     10746     10748
     10747     10746     10749     10748     10746     10749     10749     10751     10752
     10749     10757     10758     10749     10757     10759     10749     10757     10760
     10750     10749     10751     10750     10749     10757     10751     10749     10757
     10751     10752     10753     10751     10752     10754     10752     10754     10755
     10752     10754     10756     10752     10754     10766     10753     10752     10754
     10754     10766     10767     10754     10766     10768     10754     10766     10769
     10755     10754     10756     10755     10754     10766     10756     10754     10766
     10757     10760     10761     10758     10757     10759     10758     10757     10760
     10759     10757     10760     10760     10761     10762     10760     10761     10763
     10761     10763     10764     10761     10763     10765     10761     10763     10813
     10762     10761     10763     10763     10813     10814     10763     10813     10815
     10763     10813     10816     10764     10763     10765     10764     10763     10813
     10765     10763     10813     10766     10769     10770     10766     10769     10771
     10766     10769     10772     10767     10766     10768     10767     10766     10769
     10768     10766     10769     10769     10772     10773     10769     10772     10774
     10769     10772     10775     10770     10769     10771     10770     10769     10772
     10771     10769     10772     10772     10775     10776     10772     10775     10777
     10772     10775     10778     10773     10772     10774     10773     10772     10775
     10774     10772     10775     10775     10778     10779     10775     10778     10780
     10775     10778     10781     10776     10775     10777     10776     10775     10778
     10777     10775     10778     10778     10781     10782     10778     10781     10783
     10778     10781     10784     10779     10778     10780     10779     10778     10781
     10780     10778     10781     10781     10784     10785     10781     10784     10786
     10782     10781     10783     10782     10781     10784     10783     10781     10784
     10784     10786     10787     10784     10786     10788     10785     10784     10786
     10786     10788     10789     10786     10788     10790     10786     10788     10791
     10787     10786     10788     10788     10791     10792     10788     10791     10793
     10788     10791     10794     10789     10788     10790     10789     10788     10791
     10790     10788     10791     10791     10794     10795     10791     10794     10796
     10791     10794     10797     10792     10791     10793     10792     10791     10794
     10793     10791     10794     10794     10797     10798     10794     10797     10799
     10794     10797     10800     10795     10794     10796     10795     10794     10797
     10796     10794     10797     10797     10800     10801     10797     10800     10802
     10797     10800     10803     10798     10797     10799     10798     10797     10800
     10799     10797     10800     10800     10803     10804     10800     10803     10805
     10800     10803     10806     10801     10800     10802     10801     10800     10803
     10802     10800     10803     10803     10806     10807     10803     10806     10808
     10803     10806     10809     10804     10803     10805     10804     10803     10806
     10805     10803     10806     10806     10809     10810     10806     10809     10811
     10806     10809     10812     10807     10806     10808     10807     10806     10809
     10808     10806     10809     10810     10809     10811     10810     10809     10812
     10811     10809     10812     10813     10816     10817     10813     10816     10818
     10813     10816     10819     10814     10813     10815     10814     10813     10816
     10815     10813     10816     10816     10819     10820     10816     10819     10821
     10816     10819     10822     10817     10816     10818     10817     10816     10819
     10818     10816     10819     10819     10822     10823     10819     10822     10824
     10819     10822     10825     10820     10819     10821     10820     10819     10822
     10821     10819     10822     10822     10825     10826     10822     10825     10827
     10822     10825     10828     10823     10822     10824     10823     10822     10825
     10824     10822     10825     10825     10828     10829     10825     10828     10830
     10825     10828     10831     10826     10825     10827     10826     10825     10828
     10827     10825     10828     10828     10831     10832     10828     10831     10833
     10828     10831     10834     10829     10828     10830     10829     10828     10831
     10830     10828     10831     10831     10834     10835     10831     10834     10836
     10831     10834     10837     10832     10831     10833     10832     10831     10834
     10833     10831     10834     10834     10837     10838     10834     10837     10839
     10834     10837     10840     10835     10834     10836     10835     10834     10837
     10836     10834     10837     10837     10840     10841     10837     10840     10842
     10837     10840     10843     10838     10837     10839     10838     10837     10840
     10839     10837     10840     10840     10843     10844     10840     10843     10845
     10840     10843     10846     10841     10840     10842     10841     10840     10843
     10842     10840     10843     10843     10846     10847     10843     10846     10848
     10843     10846     10849     10844     10843     10845     10844     10843     10846
     10845     10843     10846     10846     10849     10850     10846     10849     10851
     10846     10849     10852     10847     10846     10848     10847     10846     10849
     10848     10846     10849     10849     10852     10853     10849     10852     10854
     10849     10852     10855     10850     10849     10851     10850     10849     10852
     10851     10849     10852     10853     10852     10854     10853     10852     10855
     10854     10852     10855     10856     10857     10858     10856     10857     10859
     10856     10857     10872     10856     10860     10861     10856     10860     10862
     10856     10860     10863     10856     10864     10865     10856     10864     10866
     10856     10864     10867     10856     10868     10869     10856     10868     10870
     10856     10868     10871     10857     10856     10860     10857     10856     10864
     10857     10856     10868     10857     10872     10873     10857     10872     10874
     10857     10872     10878     10858     10857     10859     10858     10857     10872
     10859     10857     10872     10860     10856     10864     10860     10856     10868
     10861     10860     10862     10861     10860     10863     10862     10860     10863
     10864     10856     10868     10865     10864     10866     10865     10864     10867
     10866     10864     10867     10869     10868     10870     10869     10868     10871
     10870     10868     10871     10872     10878     10875     10873     10872     10874
     10873     10872     10878     10874     10872     10878     10875     10879     10880
     10876     10875     10877     10876     10875     10878     10876     10875     10879
     10877     10875     10878     10877     10875     10879     10878     10875     10879
     10879     10880     10881     10879     10880     10882     10879     10880     10883
     10880     10883     10884     10880     10883     10885     10880     10883     10891
     10881     10880     10882     10881     10880     10883     10882     10880     10883
     10883     10885     10886     10883     10891     10892     10883     10891     10893
     10883     10891     10894     10884     10883     10885     10884     10883     10891
     10885     10883     10891     10885     10886     10887     10885     10886     10888
     10886     10888     10889     10886     10888     10890     10886     10888     10900
     10887     10886     10888     10888     10900     10901     10888     10900     10902
     10888     10900     10903     10889     10888     10890     10889     10888     10900
     10890     10888     10900     10891     10894     10895     10892     10891     10893
     10892     10891     10894     10893     10891     10894     10894     10895     10896
     10894     10895     10897     10895     10897     10898     10895     10897     10899
     10895     10897     10947     10896     10895     10897     10897     10947     10948
     10897     10947     10949     10897     10947     10950     10898     10897     10899
     10898     10897     10947     10899     10897     10947     10900     10903     10904
     10900     10903     10905     10900     10903     10906     10901     10900     10902
     10901     10900     10903     10902     10900     10903     10903     10906     10907
     10903     10906     10908     10903     10906     10909     10904     10903     10905
     10904     10903     10906     10905     10903     10906     10906     10909     10910
     10906     10909     10911     10906     10909     10912     10907     10906     10908
     10907     10906     10909     10908     10906     10909     10909     10912     10913
     10909     10912     10914     10909     10912     10915     10910     10909     10911
     10910     10909     10912     10911     10909     10912     10912     10915     10916
     10912     10915     10917     10912     10915     10918     10913     10912     10914
     10913     10912     10915     10914     10912     10915     10915     10918     10919
     10915     10918     10920     10916     10915     10917     10916     10915     10918
     10917     10915     10918     10918     10920     10921     10918     10920     10922
     10919     10918     10920     10920     10922     10923     10920     10922     10924
     10920     10922     10925     10921     10920     10922     10922     10925     10926
     10922     10925     10927     10922     10925     10928     10923     10922     10924
     10923     10922     10925     10924     10922     10925     10925     10928     10929
     10925     10928     10930     10925     10928     10931     10926     10925     10927
     10926     10925     10928     10927     10925     10928     10928     10931     10932
     10928     10931     10933     10928     10931     10934     10929     10928     10930
     10929     10928     10931     10930     10928     10931     10931     10934     10935
     10931     10934     10936     10931     10934     10937     10932     10931     10933
     10932     10931     10934     10933     10931     10934     10934     10937     10938
     10934     10937     10939     10934     10937     10940     10935     10934     10936
     10935     10934     10937     10936     10934     10937     10937     10940     10941
     10937     10940     10942     10937     10940     10943     10938     10937     10939
     10938     10937     10940     10939     10937     10940     10940     10943     10944
     10940     10943     10945     10940     10943     10946     10941     10940     10942
     10941     10940     10943     10942     10940     10943     10944     10943     10945
     10944     10943     10946     10945     10943     10946     10947     10950     10951
     10947     10950     10952     10947     10950     10953     10948     10947     10949
     10948     10947     10950     10949     10947     10950     10950     10953     10954
     10950     10953     10955     10950     10953     10956     10951     10950     10952
     10951     10950     10953     10952     10950     10953     10953     10956     10957
     10953     10956     10958     10953     10956     10959     10954     10953     10955
     10954     10953     10956     10955     10953     10956     10956     10959     10960
     10956     10959     10961     10956     10959     10962     10957     10956     10958
     10957     10956     10959     10958     10956     10959     10959     10962     10963
     10959     10962     10964     10959     10962     10965     10960     10959     10961
     10960     10959     10962     10961     10959     10962     10962     10965     10966
     10962     10965     10967     10962     10965     10968     10963     10962     10964
     10963     10962     10965     10964     10962     10965     10965     10968     10969
     10965     10968     10970     10965     10968     10971     10966     10965     10967
     10966     10965     10968     10967     10965     10968     10968     10971     10972
     10968     10971     10973     10968     10971     10974     10969     10968     10970
     10969     10968     10971     10970     10968     10971     10971     10974     10975
     10971     10974     10976     10971     10974     10977     10972     10971     10973
     10972     10971     10974     10973     10971     10974     10974     10977     10978
     10974     10977     10979     10974     10977     10980     10975     10974     10976
     10975     10974     10977     10976     10974     10977     10977     10980     10981
     10977     10980     10982     10977     10980     10983     10978     10977     10979
     10978     10977     10980     10979     10977     10980     10980     10983     10984
     10980     10983     10985     10980     10983     10986     10981     10980     10982
     10981     10980     10983     10982     10980     10983     10983     10986     10987
     10983     10986     10988     10983     10986     10989     10984     10983     10985
     10984     10983     10986     10985     10983     10986     10987     10986     10988
     10987     10986     10989     10988     10986     10989     10990     10991     10992
     10990     10991     10993     10990     10991     11006     10990     10994     10995
     10990     10994     10996     10990     10994     10997     10990     10998     10999
     10990     10998     11000     10990     10998     11001     10990     11002     11003
     10990     11002     11004     10990     11002     11005     10991     10990     10994
     10991     10990     10998     10991     10990     11002     10991     11006     11007
     10991     11006     11008     10991     11006     11012     10992     10991     10993
     10992     10991     11006     10993     10991     11006     10994     10990     10998
     10994     10990     11002     10995     10994     10996     10995     10994     10997
     10996     10994     10997     10998     10990     11002     10999     10998     11000
     10999     10998     11001     11000     10998     11001     11003     11002     11004
     11003     11002     11005     11004     11002     11005     11006     11012     11009
     11007     11006     11008     11007     11006     11012     11008     11006     11012
     11009     11013     11014     11010     11009     11011     11010     11009     11012
     11010     11009     11013     11011     11009     11012     11011     11009     11013
     11012     11009     11013     11013     11014     11015     11013     11014     11016
     11013     11014     11017     11014     11017     11018     11014     11017     11019
     11014     11017     11025     11015     11014     11016     11015     11014     11017
     11016     11014     11017     11017     11019     11020     11017     11025     11026
     11017     11025     11027     11017     11025     11028     11018     11017     11019
     11018     11017     11025     11019     11017     11025     11019     11020     11021
     11019     11020     11022     11020     11022     11023     11020     11022     11024
     11020     11022     11034     11021     11020     11022     11022     11034     11035
     11022     11034     11036     11022     11034     11037     11023     11022     11024
     11023     11022     11034     11024     11022     11034     11025     11028     11029
     11026     11025     11027     11026     11025     11028     11027     11025     11028
     11028     11029     11030     11028     11029     11031     11029     11031     11032
     11029     11031     11033     11029     11031     11081     11030     11029     11031
     11031     11081     11082     11031     11081     11083     11031     11081     11084
     11032     11031     11033     11032     11031     11081     11033     11031     11081
     11034     11037     11038     11034     11037     11039     11034     11037     11040
     11035     11034     11036     11035     11034     11037     11036     11034     11037
     11037     11040     11041     11037     11040     11042     11037     11040     11043
     11038     11037     11039     11038     11037     11040     11039     11037     11040
     11040     11043     11044     11040     11043     11045     11040     11043     11046
     11041     11040     11042     11041     11040     11043     11042     11040     11043
     11043     11046     11047     11043     11046     11048     11043     11046     11049
     11044     11043     11045     11044     11043     11046     11045     11043     11046
     11046     11049     11050     11046     11049     11051     11046     11049     11052
     11047     11046     11048     11047     11046     11049     11048     11046     11049
     11049     11052     11053     11049     11052     11054     11050     11049     11051
     11050     11049     11052     11051     11049     11052     11052     11054     11055
     11052     11054     11056     11053     11052     11054     11054     11056     11057
     11054     11056     11058     11054     11056     11059     11055     11054     11056
     11056     11059     11060     11056     11059     11061     11056     11059     11062
     11057     11056     11058     11057     11056     11059     11058     11056     11059
     11059     11062     11063     11059     11062     11064     11059     11062     11065
     11060     11059     11061     11060     11059     11062     11061     11059     11062
     11062     11065     11066     11062     11065     11067     11062     11065     11068
     11063     11062     11064     11063     11062     11065     11064     11062     11065
     11065     11068     11069     11065     11068     11070     11065     11068     11071
     11066     11065     11067     11066     11065     11068     11067     11065     11068
     11068     11071     11072     11068     11071     11073     11068     11071     11074
     11069     11068     11070     11069     11068     11071     11070     11068     11071
     11071     11074     11075     11071     11074     11076     11071     11074     11077
     11072     11071     11073     11072     11071     11074     11073     11071     11074
     11074     11077     11078     11074     11077     11079     11074     11077     11080
     11075     11074     11076     11075     11074     11077     11076     11074     11077
     11078     11077     11079     11078     11077     11080     11079     11077     11080
     11081     11084     11085     11081     11084     11086     11081     11084     11087
     11082     11081     11083     11082     11081     11084     11083     11081     11084
     11084     11087     11088     11084     11087     11089     11084     11087     11090
     11085     11084     11086     11085     11084     11087     11086     11084     11087
     11087     11090     11091     11087     11090     11092     11087     11090     11093
     11088     11087     11089     11088     11087     11090     11089     11087     11090
     11090     11093     11094     11090     11093     11095     11090     11093     11096
     11091     11090     11092     11091     11090     11093     11092     11090     11093
     11093     11096     11097     11093     11096     11098     11093     11096     11099
     11094     11093     11095     11094     11093     11096     11095     11093     11096
     11096     11099     11100     11096     11099     11101     11096     11099     11102
     11097     11096     11098     11097     11096     11099     11098     11096     11099
     11099     11102     11103     11099     11102     11104     11099     11102     11105
     11100     11099     11101     11100     11099     11102     11101     11099     11102
     11102     11105     11106     11102     11105     11107     11102     11105     11108
     11103     11102     11104     11103     11102     11105     11104     11102     11105
     11105     11108     11109     11105     11108     11110     11105     11108     11111
     11106     11105     11107     11106     11105     11108     11107     11105     11108
     11108     11111     11112     11108     11111     11113     11108     11111     11114
     11109     11108     11110     11109     11108     11111     11110     11108     11111
     11111     11114     11115     11111     11114     11116     11111     11114     11117
     11112     11111     11113     11112     11111     11114     11113     11111     11114
     11114     11117     11118     11114     11117     11119     11114     11117     11120
     11115     11114     11116     11115     11114     11117     11116     11114     11117
     11117     11120     11121     11117     11120     11122     11117     11120     11123
     11118     11117     11119     11118     11117     11120     11119     11117     11120
     11121     11120     11122     11121     11120     11123     11122     11120     11123
     11124     11125     11126     11124     11125     11127     11124     11125     11140
     11124     11128     11129     11124     11128     11130     11124     11128     11131
     11124     11132     11133     11124     11132     11134     11124     11132     11135
     11124     11136     11137     11124     11136     11138     11124     11136     11139
     11125     11124     11128     11125     11124     11132     11125     11124     11136
     11125     11140     11141     11125     11140     11142     11125     11140     11146
     11126     11125     11127     11126     11125     11140     11127     11125     11140
     11128     11124     11132     11128     11124     11136     11129     11128     11130
     11129     11128     11131     11130     11128     11131     11132     11124     11136
     11133     11132     11134     11133     11132     11135     11134     11132     11135
     11137     11136     11138     11137     11136     11139     11138     11136     11139
     11140     11146     11143     11141     11140     11142     11141     11140     11146
     11142     11140     11146     11143     11147     11148     11144     11143     11145
     11144     11143     11146     11144     11143     11147     11145     11143     11146
     11145     11143     11147     11146     11143     11147     11147     11148     11149
     11147     11148     11150     11147     11148     11151     11148     11151     11152
     11148     11151     11153     11148     11151     11159     11149     11148     11150
     11149     11148     11151     11150     11148     11151     11151     11153     11154
     11151     11159     11160     11151     11159     11161     11151     11159     11162
     11152     11151     11153     11152     11151     11159     11153     11151     11159
     11153     11154     11155     11153     11154     11156     11154     11156     11157
     11154     11156     11158     11154     11156     11168     11155     11154     11156
     11156     11168     11169     11156     11168     11170     11156     11168     11171
     11157     11156     11158     11157     11156     11168     11158     11156     11168
     11159     11162     11163     11160     11159     11161     11160     11159     11162
     11161     11159     11162     11162     11163     11164     11162     11163     11165
     11163     11165     11166     11163     11165     11167     11163     11165     11215
     11164     11163     11165     11165     11215     11216     11165     11215     11217
     11165     11215     11218     11166     11165     11167     11166     11165     11215
     11167     11165     11215     11168     11171     11172     11168     11171     11173
     11168     11171     11174     11169     11168     11170     11169     11168     11171
     11170     11168     11171     11171     11174     11175     11171     11174     11176
     11171     11174     11177     11172     11171     11173     11172     11171     11174
     11173     11171     11174     11174     11177     11178     11174     11177     11179
     11174     11177     11180     11175     11174     11176     11175     11174     11177
     11176     11174     11177     11177     11180     11181     11177     11180     11182
     11177     11180     11183     11178     11177     11179     11178     11177     11180
     11179     11177     11180     11180     11183     11184     11180     11183     11185
     11180     11183     11186     11181     11180     11182     11181     11180     11183
     11182     11180     11183     11183     11186     11187     11183     11186     11188
     11184     11183     11185     11184     11183     11186     11185     11183     11186
     11186     11188     11189     11186     11188     11190     11187     11186     11188
     11188     11190     11191     11188     11190     11192     11188     11190     11193
     11189     11188     11190     11190     11193     11194     11190     11193     11195
     11190     11193     11196     11191     11190     11192     11191     11190     11193
     11192     11190     11193     11193     11196     11197     11193     11196     11198
     11193     11196     11199     11194     11193     11195     11194     11193     11196
     11195     11193     11196     11196     11199     11200     11196     11199     11201
     11196     11199     11202     11197     11196     11198     11197     11196     11199
     11198     11196     11199     11199     11202     11203     11199     11202     11204
     11199     11202     11205     11200     11199     11201     11200     11199     11202
     11201     11199     11202     11202     11205     11206     11202     11205     11207
     11202     11205     11208     11203     11202     11204     11203     11202     11205
     11204     11202     11205     11205     11208     11209     11205     11208     11210
     11205     11208     11211     11206     11205     11207     11206     11205     11208
     11207     11205     11208     11208     11211     11212     11208     11211     11213
     11208     11211     11214     11209     11208     11210     11209     11208     11211
     11210     11208     11211     11212     11211     11213     11212     11211     11214
     11213     11211     11214     11215     11218     11219     11215     11218     11220
     11215     11218     11221     11216     11215     11217     11216     11215     11218
     11217     11215     11218     11218     11221     11222     11218     11221     11223
     11218     11221     11224     11219     11218     11220     11219     11218     11221
     11220     11218     11221     11221     11224     11225     11221     11224     11226
     11221     11224     11227     11222     11221     11223     11222     11221     11224
     11223     11221     11224     11224     11227     11228     11224     11227     11229
     11224     11227     11230     11225     11224     11226     11225     11224     11227
     11226     11224     11227     11227     11230     11231     11227     11230     11232
     11227     11230     11233     11228     11227     11229     11228     11227     11230
     11229     11227     11230     11230     11233     11234     11230     11233     11235
     11230     11233     11236     11231     11230     11232     11231     11230     11233
     11232     11230     11233     11233     11236     11237     11233     11236     11238
     11233     11236     11239     11234     11233     11235     11234     11233     11236
     11235     11233     11236     11236     11239     11240     11236     11239     11241
     11236     11239     11242     11237     11236     11238     11237     11236     11239
     11238     11236     11239     11239     11242     11243     11239     11242     11244
     11239     11242     11245     11240     11239     11241     11240     11239     11242
     11241     11239     11242     11242     11245     11246     11242     11245     11247
     11242     11245     11248     11243     11242     11244     11243     11242     11245
     11244     11242     11245     11245     11248     11249     11245     11248     11250
     11245     11248     11251     11246     11245     11247     11246     11245     11248
     11247     11245     11248     11248     11251     11252     11248     11251     11253
     11248     11251     11254     11249     11248     11250     11249     11248     11251
     11250     11248     11251     11251     11254     11255     11251     11254     11256
     11251     11254     11257     11252     11251     11253     11252     11251     11254
     11253     11251     11254     11255     11254     11256     11255     11254     11257
     11256     11254     11257     11258     11262     11263     11258     11262     11264
     11258     11262     11267     11259     11258     11260     11259     11258     11261
     11259     11258     11262     11260     11258     11261     11260     11258     11262
     11261     11258     11262     11262     11264     11265     11262     11264     11266
     11262     11267     11268     11262     11267     11269     11262     11267     11273
     11263     11262     11264     11263     11262     11267     11264     11262     11267
     11265     11264     11266     11267     11273     11270     11268     11267     11269
     11268     11267     11273     11269     11267     11273     11270     11274     11275
     11271     11270     11272     11271     11270     11273     11271     11270     11274
     11272     11270     11273     11272     11270     11274     11273     11270     11274
     11274     11275     11276     11274     11275     11277     11274     11275     11278
     11275     11278     11279     11275     11278     11280     11275     11278     11286
     11276     11275     11277     11276     11275     11278     11277     11275     11278
     11278     11280     11281     11278     11286     11287     11278     11286     11288
     11278     11286     11289     11279     11278     11280     11279     11278     11286
     11280     11278     11286     11280     11281     11282     11280     11281     11283
     11281     11283     11284     11281     11283     11285     11281     11283     11295
     11282     11281     11283     11283     11295     11296     11283     11295     11297
     11283     11295     11298     11284     11283     11285     11284     11283     11295
     11285     11283     11295     11286     11289     11290     11287     11286     11288
     11287     11286     11289     11288     11286     11289     11289     11290     11291
     11289     11290     11292     11290     11292     11293     11290     11292     11294
     11290     11292     11342     11291     11290     11292     11292     11342     11343
     11292     11342     11344     11292     11342     11345     11293     11292     11294
     11293     11292     11342     11294     11292     11342     11295     11298     11299
     11295     11298     11300     11295     11298     11301     11296     11295     11297
     11296     11295     11298     11297     11295     11298     11298     11301     11302
     11298     11301     11303     11298     11301     11304     11299     11298     11300
     11299     11298     11301     11300     11298     11301     11301     11304     11305
     11301     11304     11306     11301     11304     11307     11302     11301     11303
     11302     11301     11304     11303     11301     11304     11304     11307     11308
     11304     11307     11309     11304     11307     11310     11305     11304     11306
     11305     11304     11307     11306     11304     11307     11307     11310     11311
     11307     11310     11312     11307     11310     11313     11308     11307     11309
     11308     11307     11310     11309     11307     11310     11310     11313     11314
     11310     11313     11315     11311     11310     11312     11311     11310     11313
     11312     11310     11313     11313     11315     11316     11313     11315     11317
     11314     11313     11315     11315     11317     11318     11315     11317     11319
     11315     11317     11320     11316     11315     11317     11317     11320     11321
     11317     11320     11322     11317     11320     11323     11318     11317     11319
     11318     11317     11320     11319     11317     11320     11320     11323     11324
     11320     11323     11325     11320     11323     11326     11321     11320     11322
     11321     11320     11323     11322     11320     11323     11323     11326     11327
     11323     11326     11328     11323     11326     11329     11324     11323     11325
     11324     11323     11326     11325     11323     11326     11326     11329     11330
     11326     11329     11331     11326     11329     11332     11327     11326     11328
     11327     11326     11329     11328     11326     11329     11329     11332     11333
     11329     11332     11334     11329     11332     11335     11330     11329     11331
     11330     11329     11332     11331     11329     11332     11332     11335     11336
     11332     11335     11337     11332     11335     11338     11333     11332     11334
     11333     11332     11335     11334     11332     11335     11335     11338     11339
     11335     11338     11340     11335     11338     11341     11336     11335     11337
     11336     11335     11338     11337     11335     11338     11339     11338     11340
     11339     11338     11341     11340     11338     11341     11342     11345     11346
     11342     11345     11347     11342     11345     11348     11343     11342     11344
     11343     11342     11345     11344     11342     11345     11345     11348     11349
     11345     11348     11350     11345     11348     11351     11346     11345     11347
     11346     11345     11348     11347     11345     11348     11348     11351     11352
     11348     11351     11353     11348     11351     11354     11349     11348     11350
     11349     11348     11351     11350     11348     11351     11351     11354     11355
     11351     11354     11356     11351     11354     11357     11352     11351     11353
     11352     11351     11354     11353     11351     11354     11354     11357     11358
     11354     11357     11359     11354     11357     11360     11355     11354     11356
     11355     11354     11357     11356     11354     11357     11357     11360     11361
     11357     11360     11362     11357     11360     11363     11358     11357     11359
     11358     11357     11360     11359     11357     11360     11360     11363     11364
     11360     11363     11365     11360     11363     11366     11361     11360     11362
     11361     11360     11363     11362     11360     11363     11363     11366     11367
     11363     11366     11368     11363     11366     11369     11364     11363     11365
     11364     11363     11366     11365     11363     11366     11366     11369     11370
     11366     11369     11371     11366     11369     11372     11367     11366     11368
     11367     11366     11369     11368     11366     11369     11369     11372     11373
     11369     11372     11374     11369     11372     11375     11370     11369     11371
     11370     11369     11372     11371     11369     11372     11372     11375     11376
     11372     11375     11377     11372     11375     11378     11373     11372     11374
     11373     11372     11375     11374     11372     11375     11375     11378     11379
     11375     11378     11380     11375     11378     11381     11376     11375     11377
     11376     11375     11378     11377     11375     11378     11378     11381     11382
     11378     11381     11383     11378     11381     11384     11379     11378     11380
     11379     11378     11381     11380     11378     11381     11382     11381     11383
     11382     11381     11384     11383     11381     11384     11385     11386     11387
     11385     11386     11388     11385     11386     11401     11385     11389     11390
     11385     11389     11391     11385     11389     11392     11385     11393     11394
     11385     11393     11395     11385     11393     11396     11385     11397     11398
     11385     11397     11399     11385     11397     11400     11386     11385     11389
     11386     11385     11393     11386     11385     11397     11386     11401     11402
     11386     11401     11403     11386     11401     11407     11387     11386     11388
     11387     11386     11401     11388     11386     11401     11389     11385     11393
     11389     11385     11397     11390     11389     11391     11390     11389     11392
     11391     11389     11392     11393     11385     11397     11394     11393     11395
     11394     11393     11396     11395     11393     11396     11398     11397     11399
     11398     11397     11400     11399     11397     11400     11401     11407     11404
     11402     11401     11403     11402     11401     11407     11403     11401     11407
     11404     11408     11409     11405     11404     11406     11405     11404     11407
     11405     11404     11408     11406     11404     11407     11406     11404     11408
     11407     11404     11408     11408     11409     11410     11408     11409     11411
     11408     11409     11412     11409     11412     11413     11409     11412     11414
     11409     11412     11420     11410     11409     11411     11410     11409     11412
     11411     11409     11412     11412     11414     11415     11412     11420     11421
     11412     11420     11422     11412     11420     11423     11413     11412     11414
     11413     11412     11420     11414     11412     11420     11414     11415     11416
     11414     11415     11417     11415     11417     11418     11415     11417     11419
     11415     11417     11429     11416     11415     11417     11417     11429     11430
     11417     11429     11431     11417     11429     11432     11418     11417     11419
     11418     11417     11429     11419     11417     11429     11420     11423     11424
     11421     11420     11422     11421     11420     11423     11422     11420     11423
     11423     11424     11425     11423     11424     11426     11424     11426     11427
     11424     11426     11428     11424     11426     11476     11425     11424     11426
     11426     11476     11477     11426     11476     11478     11426     11476     11479
     11427     11426     11428     11427     11426     11476     11428     11426     11476
     11429     11432     11433     11429     11432     11434     11429     11432     11435
     11430     11429     11431     11430     11429     11432     11431     11429     11432
     11432     11435     11436     11432     11435     11437     11432     11435     11438
     11433     11432     11434     11433     11432     11435     11434     11432     11435
     11435     11438     11439     11435     11438     11440     11435     11438     11441
     11436     11435     11437     11436     11435     11438     11437     11435     11438
     11438     11441     11442     11438     11441     11443     11438     11441     11444
     11439     11438     11440     11439     11438     11441     11440     11438     11441
     11441     11444     11445     11441     11444     11446     11441     11444     11447
     11442     11441     11443     11442     11441     11444     11443     11441     11444
     11444     11447     11448     11444     11447     11449     11445     11444     11446
     11445     11444     11447     11446     11444     11447     11447     11449     11450
     11447     11449     11451     11448     11447     11449     11449     11451     11452
     11449     11451     11453     11449     11451     11454     11450     11449     11451
     11451     11454     11455     11451     11454     11456     11451     11454     11457
     11452     11451     11453     11452     11451     11454     11453     11451     11454
     11454     11457     11458     11454     11457     11459     11454     11457     11460
     11455     11454     11456     11455     11454     11457     11456     11454     11457
     11457     11460     11461     11457     11460     11462     11457     11460     11463
     11458     11457     11459     11458     11457     11460     11459     11457     11460
     11460     11463     11464     11460     11463     11465     11460     11463     11466
     11461     11460     11462     11461     11460     11463     11462     11460     11463
     11463     11466     11467     11463     11466     11468     11463     11466     11469
     11464     11463     11465     11464     11463     11466     11465     11463     11466
     11466     11469     11470     11466     11469     11471     11466     11469     11472
     11467     11466     11468     11467     11466     11469     11468     11466     11469
     11469     11472     11473     11469     11472     11474     11469     11472     11475
     11470     11469     11471     11470     11469     11472     11471     11469     11472
     11473     11472     11474     11473     11472     11475     11474     11472     11475
     11476     11479     11480     11476     11479     11481     11476     11479     11482
     11477     11476     11478     11477     11476     11479     11478     11476     11479
     11479     11482     11483     11479     11482     11484     11479     11482     11485
     11480     11479     11481     11480     11479     11482     11481     11479     11482
     11482     11485     11486     11482     11485     11487     11482     11485     11488
     11483     11482     11484     11483     11482     11485     11484     11482     11485
     11485     11488     11489     11485     11488     11490     11485     11488     11491
     11486     11485     11487     11486     11485     11488     11487     11485     11488
     11488     11491     11492     11488     11491     11493     11488     11491     11494
     11489     11488     11490     11489     11488     11491     11490     11488     11491
     11491     11494     11495     11491     11494     11496     11491     11494     11497
     11492     11491     11493     11492     11491     11494     11493     11491     11494
     11494     11497     11498     11494     11497     11499     11494     11497     11500
     11495     11494     11496     11495     11494     11497     11496     11494     11497
     11497     11500     11501     11497     11500     11502     11497     11500     11503
     11498     11497     11499     11498     11497     11500     11499     11497     11500
     11500     11503     11504     11500     11503     11505     11500     11503     11506
     11501     11500     11502     11501     11500     11503     11502     11500     11503
     11503     11506     11507     11503     11506     11508     11503     11506     11509
     11504     11503     11505     11504     11503     11506     11505     11503     11506
     11506     11509     11510     11506     11509     11511     11506     11509     11512
     11507     11506     11508     11507     11506     11509     11508     11506     11509
     11509     11512     11513     11509     11512     11514     11509     11512     11515
     11510     11509     11511     11510     11509     11512     11511     11509     11512
     11512     11515     11516     11512     11515     11517     11512     11515     11518
     11513     11512     11514     11513     11512     11515     11514     11512     11515
     11516     11515     11517     11516     11515     11518     11517     11515     11518
     11519     11520     11521     11519     11520     11522     11519     11520     11535
     11519     11523     11524     11519     11523     11525     11519     11523     11526
     11519     11527     11528     11519     11527     11529     11519     11527     11530
     11519     11531     11532     11519     11531     11533     11519     11531     11534
     11520     11519     11523     11520     11519     11527     11520     11519     11531
     11520     11535     11536     11520     11535     11537     11520     11535     11541
     11521     11520     11522     11521     11520     11535     11522     11520     11535
     11523     11519     11527     11523     11519     11531     11524     11523     11525
     11524     11523     11526     11525     11523     11526     11527     11519     11531
     11528     11527     11529     11528     11527     11530     11529     11527     11530
     11532     11531     11533     11532     11531     11534     11533     11531     11534
     11535     11541     11538     11536     11535     11537     11536     11535     11541
     11537     11535     11541     11538     11542     11543     11539     11538     11540
     11539     11538     11541     11539     11538     11542     11540     11538     11541
     11540     11538     11542     11541     11538     11542     11542     11543     11544
     11542     11543     11545     11542     11543     11546     11543     11546     11547
     11543     11546     11548     11543     11546     11554     11544     11543     11545
     11544     11543     11546     11545     11543     11546     11546     11548     11549
     11546     11554     11555     11546     11554     11556     11546     11554     11557
     11547     11546     11548     11547     11546     11554     11548     11546     11554
     11548     11549     11550     11548     11549     11551     11549     11551     11552
     11549     11551     11553     11549     11551     11563     11550     11549     11551
     11551     11563     11564     11551     11563     11565     11551     11563     11566
     11552     11551     11553     11552     11551     11563     11553     11551     11563
     11554     11557     11558     11555     11554     11556     11555     11554     11557
     11556     11554     11557     11557     11558     11559     11557     11558     11560
     11558     11560     11561     11558     11560     11562     11558     11560     11610
     11559     11558     11560     11560     11610     11611     11560     11610     11612
     11560     11610     11613     11561     11560     11562     11561     11560     11610
     11562     11560     11610     11563     11566     11567     11563     11566     11568
     11563     11566     11569     11564     11563     11565     11564     11563     11566
     11565     11563     11566     11566     11569     11570     11566     11569     11571
     11566     11569     11572     11567     11566     11568     11567     11566     11569
     11568     11566     11569     11569     11572     11573     11569     11572     11574
     11569     11572     11575     11570     11569     11571     11570     11569     11572
     11571     11569     11572     11572     11575     11576     11572     11575     11577
     11572     11575     11578     11573     11572     11574     11573     11572     11575
     11574     11572     11575     11575     11578     11579     11575     11578     11580
     11575     11578     11581     11576     11575     11577     11576     11575     11578
     11577     11575     11578     11578     11581     11582     11578     11581     11583
     11579     11578     11580     11579     11578     11581     11580     11578     11581
     11581     11583     11584     11581     11583     11585     11582     11581     11583
     11583     11585     11586     11583     11585     11587     11583     11585     11588
     11584     11583     11585     11585     11588     11589     11585     11588     11590
     11585     11588     11591     11586     11585     11587     11586     11585     11588
     11587     11585     11588     11588     11591     11592     11588     11591     11593
     11588     11591     11594     11589     11588     11590     11589     11588     11591
     11590     11588     11591     11591     11594     11595     11591     11594     11596
     11591     11594     11597     11592     11591     11593     11592     11591     11594
     11593     11591     11594     11594     11597     11598     11594     11597     11599
     11594     11597     11600     11595     11594     11596     11595     11594     11597
     11596     11594     11597     11597     11600     11601     11597     11600     11602
     11597     11600     11603     11598     11597     11599     11598     11597     11600
     11599     11597     11600     11600     11603     11604     11600     11603     11605
     11600     11603     11606     11601     11600     11602     11601     11600     11603
     11602     11600     11603     11603     11606     11607     11603     11606     11608
     11603     11606     11609     11604     11603     11605     11604     11603     11606
     11605     11603     11606     11607     11606     11608     11607     11606     11609
     11608     11606     11609     11610     11613     11614     11610     11613     11615
     11610     11613     11616     11611     11610     11612     11611     11610     11613
     11612     11610     11613     11613     11616     11617     11613     11616     11618
     11613     11616     11619     11614     11613     11615     11614     11613     11616
     11615     11613     11616     11616     11619     11620     11616     11619     11621
     11616     11619     11622     11617     11616     11618     11617     11616     11619
     11618     11616     11619     11619     11622     11623     11619     11622     11624
     11619     11622     11625     11620     11619     11621     11620     11619     11622
     11621     11619     11622     11622     11625     11626     11622     11625     11627
     11622     11625     11628     11623     11622     11624     11623     11622     11625
     11624     11622     11625     11625     11628     11629     11625     11628     11630
     11625     11628     11631     11626     11625     11627     11626     11625     11628
     11627     11625     11628     11628     11631     11632     11628     11631     11633
     11628     11631     11634     11629     11628     11630     11629     11628     11631
     11630     11628     11631     11631     11634     11635     11631     11634     11636
     11631     11634     11637     11632     11631     11633     11632     11631     11634
     11633     11631     11634     11634     11637     11638     11634     11637     11639
     11634     11637     11640     11635     11634     11636     11635     11634     11637
     11636     11634     11637     11637     11640     11641     11637     11640     11642
     11637     11640     11643     11638     11637     11639     11638     11637     11640
     11639     11637     11640     11640     11643     11644     11640     11643     11645
     11640     11643     11646     11641     11640     11642     11641     11640     11643
     11642     11640     11643     11643     11646     11647     11643     11646     11648
     11643     11646     11649     11644     11643     11645     11644     11643     11646
     11645     11643     11646     11646     11649     11650     11646     11649     11651
     11646     11649     11652     11647     11646     11648     11647     11646     11649
     11648     11646     11649     11650     11649     11651     11650     11649     11652
     11651     11649     11652     11653     11654     11655     11653     11654     11656
     11653     11654     11669     11653     11657     11658     11653     11657     11659
     11653     11657     11660     11653     11661     11662     11653     11661     11663
     11653     11661     11664     11653     11665     11666     11653     11665     11667
     11653     11665     11668     11654     11653     11657     11654     11653     11661
     11654     11653     11665     11654     11669     11670     11654     11669     11671
     11654     11669     11675     11655     11654     11656     11655     11654     11669
     11656     11654     11669     11657     11653     11661     11657     11653     11665
     11658     11657     11659     11658     11657     11660     11659     11657     11660
     11661     11653     11665     11662     11661     11663     11662     11661     11664
     11663     11661     11664     11666     11665     11667     11666     11665     11668
     11667     11665     11668     11669     11675     11672     11670     11669     11671
     11670     11669     11675     11671     11669     11675     11672     11676     11677
     11673     11672     11674     11673     11672     11675     11673     11672     11676
     11674     11672     11675     11674     11672     11676     11675     11672     11676
     11676     11677     11678     11676     11677     11679     11676     11677     11680
     11677     11680     11681     11677     11680     11682     11677     11680     11688
     11678     11677     11679     11678     11677     11680     11679     11677     11680
     11680     11682     11683     11680     11688     11689     11680     11688     11690
     11680     11688     11691     11681     11680     11682     11681     11680     11688
     11682     11680     11688     11682     11683     11684     11682     11683     11685
     11683     11685     11686     11683     11685     11687     11683     11685     11697
     11684     11683     11685     11685     11697     11698     11685     11697     11699
     11685     11697     11700     11686     11685     11687     11686     11685     11697
     11687     11685     11697     11688     11691     11692     11689     11688     11690
     11689     11688     11691     11690     11688     11691     11691     11692     11693
     11691     11692     11694     11692     11694     11695     11692     11694     11696
     11692     11694     11744     11693     11692     11694     11694     11744     11745
     11694     11744     11746     11694     11744     11747     11695     11694     11696
     11695     11694     11744     11696     11694     11744     11697     11700     11701
     11697     11700     11702     11697     11700     11703     11698     11697     11699
     11698     11697     11700     11699     11697     11700     11700     11703     11704
     11700     11703     11705     11700     11703     11706     11701     11700     11702
     11701     11700     11703     11702     11700     11703     11703     11706     11707
     11703     11706     11708     11703     11706     11709     11704     11703     11705
     11704     11703     11706     11705     11703     11706     11706     11709     11710
     11706     11709     11711     11706     11709     11712     11707     11706     11708
     11707     11706     11709     11708     11706     11709     11709     11712     11713
     11709     11712     11714     11709     11712     11715     11710     11709     11711
     11710     11709     11712     11711     11709     11712     11712     11715     11716
     11712     11715     11717     11713     11712     11714     11713     11712     11715
     11714     11712     11715     11715     11717     11718     11715     11717     11719
     11716     11715     11717     11717     11719     11720     11717     11719     11721
     11717     11719     11722     11718     11717     11719     11719     11722     11723
     11719     11722     11724     11719     11722     11725     11720     11719     11721
     11720     11719     11722     11721     11719     11722     11722     11725     11726
     11722     11725     11727     11722     11725     11728     11723     11722     11724
     11723     11722     11725     11724     11722     11725     11725     11728     11729
     11725     11728     11730     11725     11728     11731     11726     11725     11727
     11726     11725     11728     11727     11725     11728     11728     11731     11732
     11728     11731     11733     11728     11731     11734     11729     11728     11730
     11729     11728     11731     11730     11728     11731     11731     11734     11735
     11731     11734     11736     11731     11734     11737     11732     11731     11733
     11732     11731     11734     11733     11731     11734     11734     11737     11738
     11734     11737     11739     11734     11737     11740     11735     11734     11736
     11735     11734     11737     11736     11734     11737     11737     11740     11741
     11737     11740     11742     11737     11740     11743     11738     11737     11739
     11738     11737     11740     11739     11737     11740     11741     11740     11742
     11741     11740     11743     11742     11740     11743     11744     11747     11748
     11744     11747     11749     11744     11747     11750     11745     11744     11746
     11745     11744     11747     11746     11744     11747     11747     11750     11751
     11747     11750     11752     11747     11750     11753     11748     11747     11749
     11748     11747     11750     11749     11747     11750     11750     11753     11754
     11750     11753     11755     11750     11753     11756     11751     11750     11752
     11751     11750     11753     11752     11750     11753     11753     11756     11757
     11753     11756     11758     11753     11756     11759     11754     11753     11755
     11754     11753     11756     11755     11753     11756     11756     11759     11760
     11756     11759     11761     11756     11759     11762     11757     11756     11758
     11757     11756     11759     11758     11756     11759     11759     11762     11763
     11759     11762     11764     11759     11762     11765     11760     11759     11761
     11760     11759     11762     11761     11759     11762     11762     11765     11766
     11762     11765     11767     11762     11765     11768     11763     11762     11764
     11763     11762     11765     11764     11762     11765     11765     11768     11769
     11765     11768     11770     11765     11768     11771     11766     11765     11767
     11766     11765     11768     11767     11765     11768     11768     11771     11772
     11768     11771     11773     11768     11771     11774     11769     11768     11770
     11769     11768     11771     11770     11768     11771     11771     11774     11775
     11771     11774     11776     11771     11774     11777     11772     11771     11773
     11772     11771     11774     11773     11771     11774     11774     11777     11778
     11774     11777     11779     11774     11777     11780     11775     11774     11776
     11775     11774     11777     11776     11774     11777     11777     11780     11781
     11777     11780     11782     11777     11780     11783     11778     11777     11779
     11778     11777     11780     11779     11777     11780     11780     11783     11784
     11780     11783     11785     11780     11783     11786     11781     11780     11782
     11781     11780     11783     11782     11780     11783     11784     11783     11785
     11784     11783     11786     11785     11783     11786     11787     11788     11789
     11787     11788     11790     11787     11788     11803     11787     11791     11792
     11787     11791     11793     11787     11791     11794     11787     11795     11796
     11787     11795     11797     11787     11795     11798     11787     11799     11800
     11787     11799     11801     11787     11799     11802     11788     11787     11791
     11788     11787     11795     11788     11787     11799     11788     11803     11804
     11788     11803     11805     11788     11803     11809     11789     11788     11790
     11789     11788     11803     11790     11788     11803     11791     11787     11795
     11791     11787     11799     11792     11791     11793     11792     11791     11794
     11793     11791     11794     11795     11787     11799     11796     11795     11797
     11796     11795     11798     11797     11795     11798     11800     11799     11801
     11800     11799     11802     11801     11799     11802     11803     11809     11806
     11804     11803     11805     11804     11803     11809     11805     11803     11809
     11806     11810     11811     11807     11806     11808     11807     11806     11809
     11807     11806     11810     11808     11806     11809     11808     11806     11810
     11809     11806     11810     11810     11811     11812     11810     11811     11813
     11810     11811     11814     11811     11814     11815     11811     11814     11816
     11811     11814     11822     11812     11811     11813     11812     11811     11814
     11813     11811     11814     11814     11816     11817     11814     11822     11823
     11814     11822     11824     11814     11822     11825     11815     11814     11816
     11815     11814     11822     11816     11814     11822     11816     11817     11818
     11816     11817     11819     11817     11819     11820     11817     11819     11821
     11817     11819     11831     11818     11817     11819     11819     11831     11832
     11819     11831     11833     11819     11831     11834     11820     11819     11821
     11820     11819     11831     11821     11819     11831     11822     11825     11826
     11823     11822     11824     11823     11822     11825     11824     11822     11825
     11825     11826     11827     11825     11826     11828     11826     11828     11829
     11826     11828     11830     11826     11828     11878     11827     11826     11828
     11828     11878     11879     11828     11878     11880     11828     11878     11881
     11829     11828     11830     11829     11828     11878     11830     11828     11878
     11831     11834     11835     11831     11834     11836     11831     11834     11837
     11832     11831     11833     11832     11831     11834     11833     11831     11834
     11834     11837     11838     11834     11837     11839     11834     11837     11840
     11835     11834     11836     11835     11834     11837     11836     11834     11837
     11837     11840     11841     11837     11840     11842     11837     11840     11843
     11838     11837     11839     11838     11837     11840     11839     11837     11840
     11840     11843     11844     11840     11843     11845     11840     11843     11846
     11841     11840     11842     11841     11840     11843     11842     11840     11843
     11843     11846     11847     11843     11846     11848     11843     11846     11849
     11844     11843     11845     11844     11843     11846     11845     11843     11846
     11846     11849     11850     11846     11849     11851     11847     11846     11848
     11847     11846     11849     11848     11846     11849     11849     11851     11852
     11849     11851     11853     11850     11849     11851     11851     11853     11854
     11851     11853     11855     11851     11853     11856     11852     11851     11853
     11853     11856     11857     11853     11856     11858     11853     11856     11859
     11854     11853     11855     11854     11853     11856     11855     11853     11856
     11856     11859     11860     11856     11859     11861     11856     11859     11862
     11857     11856     11858     11857     11856     11859     11858     11856     11859
     11859     11862     11863     11859     11862     11864     11859     11862     11865
     11860     11859     11861     11860     11859     11862     11861     11859     11862
     11862     11865     11866     11862     11865     11867     11862     11865     11868
     11863     11862     11864     11863     11862     11865     11864     11862     11865
     11865     11868     11869     11865     11868     11870     11865     11868     11871
     11866     11865     11867     11866     11865     11868     11867     11865     11868
     11868     11871     11872     11868     11871     11873     11868     11871     11874
     11869     11868     11870     11869     11868     11871     11870     11868     11871
     11871     11874     11875     11871     11874     11876     11871     11874     11877
     11872     11871     11873     11872     11871     11874     11873     11871     11874
     11875     11874     11876     11875     11874     11877     11876     11874     11877
     11878     11881     11882     11878     11881     11883     11878     11881     11884
     11879     11878     11880     11879     11878     11881     11880     11878     11881
     11881     11884     11885     11881     11884     11886     11881     11884     11887
     11882     11881     11883     11882     11881     11884     11883     11881     11884
     11884     11887     11888     11884     11887     11889     11884     11887     11890
     11885     11884     11886     11885     11884     11887     11886     11884     11887
     11887     11890     11891     11887     11890     11892     11887     11890     11893
     11888     11887     11889     11888     11887     11890     11889     11887     11890
     11890     11893     11894     11890     11893     11895     11890     11893     11896
     11891     11890     11892     11891     11890     11893     11892     11890     11893
     11893     11896     11897     11893     11896     11898     11893     11896     11899
     11894     11893     11895     11894     11893     11896     11895     11893     11896
     11896     11899     11900     11896     11899     11901     11896     11899     11902
     11897     11896     11898     11897     11896     11899     11898     11896     11899
     11899     11902     11903     11899     11902     11904     11899     11902     11905
     11900     11899     11901     11900     11899     11902     11901     11899     11902
     11902     11905     11906     11902     11905     11907     11902     11905     11908
     11903     11902     11904     11903     11902     11905     11904     11902     11905
     11905     11908     11909     11905     11908     11910     11905     11908     11911
     11906     11905     11907     11906     11905     11908     11907     11905     11908
     11908     11911     11912     11908     11911     11913     11908     11911     11914
     11909     11908     11910     11909     11908     11911     11910     11908     11911
     11911     11914     11915     11911     11914     11916     11911     11914     11917
     11912     11911     11913     11912     11911     11914     11913     11911     11914
     11914     11917     11918     11914     11917     11919     11914     11917     11920
     11915     11914     11916     11915     11914     11917     11916     11914     11917
     11918     11917     11919     11918     11917     11920     11919     11917     11920
     11921     11922     11923     11921     11922     11924     11921     11922     11937
     11921     11925     11926     11921     11925     11927     11921     11925     11928
     11921     11929     11930     11921     11929     11931     11921     11929     11932
     11921     11933     11934     11921     11933     11935     11921     11933     11936
     11922     11921     11925     11922     11921     11929     11922     11921     11933
     11922     11937     11938     11922     11937     11939     11922     11937     11943
     11923     11922     11924     11923     11922     11937     11924     11922     11937
     11925     11921     11929     11925     11921     11933     11926     11925     11927
     11926     11925     11928     11927     11925     11928     11929     11921     11933
     11930     11929     11931     11930     11929     11932     11931     11929     11932
     11934     11933     11935     11934     11933     11936     11935     11933     11936
     11937     11943     11940     11938     11937     11939     11938     11937     11943
     11939     11937     11943     11940     11944     11945     11941     11940     11942
     11941     11940     11943     11941     11940     11944     11942     11940     11943
     11942     11940     11944     11943     11940     11944     11944     11945     11946
     11944     11945     11947     11944     11945     11948     11945     11948     11949
     11945     11948     11950     11945     11948     11956     11946     11945     11947
     11946     11945     11948     11947     11945     11948     11948     11950     11951
     11948     11956     11957     11948     11956     11958     11948     11956     11959
     11949     11948     11950     11949     11948     11956     11950     11948     11956
     11950     11951     11952     11950     11951     11953     11951     11953     11954
     11951     11953     11955     11951     11953     11965     11952     11951     11953
     11953     11965     11966     11953     11965     11967     11953     11965     11968
     11954     11953     11955     11954     11953     11965     11955     11953     11965
     11956     11959     11960     11957     11956     11958     11957     11956     11959
     11958     11956     11959     11959     11960     11961     11959     11960     11962
     11960     11962     11963     11960     11962     11964     11960     11962     12012
     11961     11960     11962     11962     12012     12013     11962     12012     12014
     11962     12012     12015     11963     11962     11964     11963     11962     12012
     11964     11962     12012     11965     11968     11969     11965     11968     11970
     11965     11968     11971     11966     11965     11967     11966     11965     11968
     11967     11965     11968     11968     11971     11972     11968     11971     11973
     11968     11971     11974     11969     11968     11970     11969     11968     11971
     11970     11968     11971     11971     11974     11975     11971     11974     11976
     11971     11974     11977     11972     11971     11973     11972     11971     11974
     11973     11971     11974     11974     11977     11978     11974     11977     11979
     11974     11977     11980     11975     11974     11976     11975     11974     11977
     11976     11974     11977     11977     11980     11981     11977     11980     11982
     11977     11980     11983     11978     11977     11979     11978     11977     11980
     11979     11977     11980     11980     11983     11984     11980     11983     11985
     11981     11980     11982     11981     11980     11983     11982     11980     11983
     11983     11985     11986     11983     11985     11987     11984     11983     11985
     11985     11987     11988     11985     11987     11989     11985     11987     11990
     11986     11985     11987     11987     11990     11991     11987     11990     11992
     11987     11990     11993     11988     11987     11989     11988     11987     11990
     11989     11987     11990     11990     11993     11994     11990     11993     11995
     11990     11993     11996     11991     11990     11992     11991     11990     11993
     11992     11990     11993     11993     11996     11997     11993     11996     11998
     11993     11996     11999     11994     11993     11995     11994     11993     11996
     11995     11993     11996     11996     11999     12000     11996     11999     12001
     11996     11999     12002     11997     11996     11998     11997     11996     11999
     11998     11996     11999     11999     12002     12003     11999     12002     12004
     11999     12002     12005     12000     11999     12001     12000     11999     12002
     12001     11999     12002     12002     12005     12006     12002     12005     12007
     12002     12005     12008     12003     12002     12004     12003     12002     12005
     12004     12002     12005     12005     12008     12009     12005     12008     12010
     12005     12008     12011     12006     12005     12007     12006     12005     12008
     12007     12005     12008     12009     12008     12010     12009     12008     12011
     12010     12008     12011     12012     12015     12016     12012     12015     12017
     12012     12015     12018     12013     12012     12014     12013     12012     12015
     12014     12012     12015     12015     12018     12019     12015     12018     12020
     12015     12018     12021     12016     12015     12017     12016     12015     12018
     12017     12015     12018     12018     12021     12022     12018     12021     12023
     12018     12021     12024     12019     12018     12020     12019     12018     12021
     12020     12018     12021     12021     12024     12025     12021     12024     12026
     12021     12024     12027     12022     12021     12023     12022     12021     12024
     12023     12021     12024     12024     12027     12028     12024     12027     12029
     12024     12027     12030     12025     12024     12026     12025     12024     12027
     12026     12024     12027     12027     12030     12031     12027     12030     12032
     12027     12030     12033     12028     12027     12029     12028     12027     12030
     12029     12027     12030     12030     12033     12034     12030     12033     12035
     12030     12033     12036     12031     12030     12032     12031     12030     12033
     12032     12030     12033     12033     12036     12037     12033     12036     12038
     12033     12036     12039     12034     12033     12035     12034     12033     12036
     12035     12033     12036     12036     12039     12040     12036     12039     12041
     12036     12039     12042     12037     12036     12038     12037     12036     12039
     12038     12036     12039     12039     12042     12043     12039     12042     12044
     12039     12042     12045     12040     12039     12041     12040     12039     12042
     12041     12039     12042     12042     12045     12046     12042     12045     12047
     12042     12045     12048     12043     12042     12044     12043     12042     12045
     12044     12042     12045     12045     12048     12049     12045     12048     12050
     12045     12048     12051     12046     12045     12047     12046     12045     12048
     12047     12045     12048     12048     12051     12052     12048     12051     12053
     12048     12051     12054     12049     12048     12050     12049     12048     12051
     12050     12048     12051     12052     12051     12053     12052     12051     12054
     12053     12051     12054     12055     12056     12057     12055     12056     12058
     12055     12056     12071     12055     12059     12060     12055     12059     12061
     12055     12059     12062     12055     12063     12064     12055     12063     12065
     12055     12063     12066     12055     12067     12068     12055     12067     12069
     12055     12067     12070     12056     12055     12059     12056     12055     12063
     12056     12055     12067     12056     12071     12072     12056     12071     12073
     12056     12071     12077     12057     12056     12058     12057     12056     12071
     12058     12056     12071     12059     12055     12063     12059     12055     12067
     12060     12059     12061     12060     12059     12062     12061     12059     12062
     12063     12055     12067     12064     12063     12065     12064     12063     12066
     12065     12063     12066     12068     12067     12069     12068     12067     12070
     12069     12067     12070     12071     12077     12074     12072     12071     12073
     12072     12071     12077     12073     12071     12077     12074     12078     12079
     12075     12074     12076     12075     12074     12077     12075     12074     12078
     12076     12074     12077     12076     12074     12078     12077     12074     12078
     12078     12079     12080     12078     12079     12081     12078     12079     12082
     12079     12082     12083     12079     12082     12084     12079     12082     12090
     12080     12079     12081     12080     12079     12082     12081     12079     12082
     12082     12084     12085     12082     12090     12091     12082     12090     12092
     12082     12090     12093     12083     12082     12084     12083     12082     12090
     12084     12082     12090     12084     12085     12086     12084     12085     12087
     12085     12087     12088     12085     12087     12089     12085     12087     12099
     12086     12085     12087     12087     12099     12100     12087     12099     12101
     12087     12099     12102     12088     12087     12089     12088     12087     12099
     12089     12087     12099     12090     12093     12094     12091     12090     12092
     12091     12090     12093     12092     12090     12093     12093     12094     12095
     12093     12094     12096     12094     12096     12097     12094     12096     12098
     12094     12096     12146     12095     12094     12096     12096     12146     12147
     12096     12146     12148     12096     12146     12149     12097     12096     12098
     12097     12096     12146     12098     12096     12146     12099     12102     12103
     12099     12102     12104     12099     12102     12105     12100     12099     12101
     12100     12099     12102     12101     12099     12102     12102     12105     12106
     12102     12105     12107     12102     12105     12108     12103     12102     12104
     12103     12102     12105     12104     12102     12105     12105     12108     12109
     12105     12108     12110     12105     12108     12111     12106     12105     12107
     12106     12105     12108     12107     12105     12108     12108     12111     12112
     12108     12111     12113     12108     12111     12114     12109     12108     12110
     12109     12108     12111     12110     12108     12111     12111     12114     12115
     12111     12114     12116     12111     12114     12117     12112     12111     12113
     12112     12111     12114     12113     12111     12114     12114     12117     12118
     12114     12117     12119     12115     12114     12116     12115     12114     12117
     12116     12114     12117     12117     12119     12120     12117     12119     12121
     12118     12117     12119     12119     12121     12122     12119     12121     12123
     12119     12121     12124     12120     12119     12121     12121     12124     12125
     12121     12124     12126     12121     12124     12127     12122     12121     12123
     12122     12121     12124     12123     12121     12124     12124     12127     12128
     12124     12127     12129     12124     12127     12130     12125     12124     12126
     12125     12124     12127     12126     12124     12127     12127     12130     12131
     12127     12130     12132     12127     12130     12133     12128     12127     12129
     12128     12127     12130     12129     12127     12130     12130     12133     12134
     12130     12133     12135     12130     12133     12136     12131     12130     12132
     12131     12130     12133     12132     12130     12133     12133     12136     12137
     12133     12136     12138     12133     12136     12139     12134     12133     12135
     12134     12133     12136     12135     12133     12136     12136     12139     12140
     12136     12139     12141     12136     12139     12142     12137     12136     12138
     12137     12136     12139     12138     12136     12139     12139     12142     12143
     12139     12142     12144     12139     12142     12145     12140     12139     12141
     12140     12139     12142     12141     12139     12142     12143     12142     12144
     12143     12142     12145     12144     12142     12145     12146     12149     12150
     12146     12149     12151     12146     12149     12152     12147     12146     12148
     12147     12146     12149     12148     12146     12149     12149     12152     12153
     12149     12152     12154     12149     12152     12155     12150     12149     12151
     12150     12149     12152     12151     12149     12152     12152     12155     12156
     12152     12155     12157     12152     12155     12158     12153     12152     12154
     12153     12152     12155     12154     12152     12155     12155     12158     12159
     12155     12158     12160     12155     12158     12161     12156     12155     12157
     12156     12155     12158     12157     12155     12158     12158     12161     12162
     12158     12161     12163     12158     12161     12164     12159     12158     12160
     12159     12158     12161     12160     12158     12161     12161     12164     12165
     12161     12164     12166     12161     12164     12167     12162     12161     12163
     12162     12161     12164     12163     12161     12164     12164     12167     12168
     12164     12167     12169     12164     12167     12170     12165     12164     12166
     12165     12164     12167     12166     12164     12167     12167     12170     12171
     12167     12170     12172     12167     12170     12173     12168     12167     12169
     12168     12167     12170     12169     12167     12170     12170     12173     12174
     12170     12173     12175     12170     12173     12176     12171     12170     12172
     12171     12170     12173     12172     12170     12173     12173     12176     12177
     12173     12176     12178     12173     12176     12179     12174     12173     12175
     12174     12173     12176     12175     12173     12176     12176     12179     12180
     12176     12179     12181     12176     12179     12182     12177     12176     12178
     12177     12176     12179     12178     12176     12179     12179     12182     12183
     12179     12182     12184     12179     12182     12185     12180     12179     12181
     12180     12179     12182     12181     12179     12182     12182     12185     12186
     12182     12185     12187     12182     12185     12188     12183     12182     12184
     12183     12182     12185     12184     12182     12185     12186     12185     12187
     12186     12185     12188     12187     12185     12188     12189     12190     12191
     12189     12190     12192     12189     12190     12205     12189     12193     12194
     12189     12193     12195     12189     12193     12196     12189     12197     12198
     12189     12197     12199     12189     12197     12200     12189     12201     12202
     12189     12201     12203     12189     12201     12204     12190     12189     12193
     12190     12189     12197     12190     12189     12201     12190     12205     12206
     12190     12205     12207     12190     12205     12211     12191     12190     12192
     12191     12190     12205     12192     12190     12205     12193     12189     12197
     12193     12189     12201     12194     12193     12195     12194     12193     12196
     12195     12193     12196     12197     12189     12201     12198     12197     12199
     12198     12197     12200     12199     12197     12200     12202     12201     12203
     12202     12201     12204     12203     12201     12204     12205     12211     12208
     12206     12205     12207     12206     12205     12211     12207     12205     12211
     12208     12212     12213     12209     12208     12210     12209     12208     12211
     12209     12208     12212     12210     12208     12211     12210     12208     12212
     12211     12208     12212     12212     12213     12214     12212     12213     12215
     12212     12213     12216     12213     12216     12217     12213     12216     12218
     12213     12216     12224     12214     12213     12215     12214     12213     12216
     12215     12213     12216     12216     12218     12219     12216     12224     12225
     12216     12224     12226     12216     12224     12227     12217     12216     12218
     12217     12216     12224     12218     12216     12224     12218     12219     12220
     12218     12219     12221     12219     12221     12222     12219     12221     12223
     12219     12221     12233     12220     12219     12221     12221     12233     12234
     12221     12233     12235     12221     12233     12236     12222     12221     12223
     12222     12221     12233     12223     12221     12233     12224     12227     12228
     12225     12224     12226     12225     12224     12227     12226     12224     12227
     12227     12228     12229     12227     12228     12230     12228     12230     12231
     12228     12230     12232     12228     12230     12280     12229     12228     12230
     12230     12280     12281     12230     12280     12282     12230     12280     12283
     12231     12230     12232     12231     12230     12280     12232     12230     12280
     12233     12236     12237     12233     12236     12238     12233     12236     12239
     12234     12233     12235     12234     12233     12236     12235     12233     12236
     12236     12239     12240     12236     12239     12241     12236     12239     12242
     12237     12236     12238     12237     12236     12239     12238     12236     12239
     12239     12242     12243     12239     12242     12244     12239     12242     12245
     12240     12239     12241     12240     12239     12242     12241     12239     12242
     12242     12245     12246     12242     12245     12247     12242     12245     12248
     12243     12242     12244     12243     12242     12245     12244     12242     12245
     12245     12248     12249     12245     12248     12250     12245     12248     12251
     12246     12245     12247     12246     12245     12248     12247     12245     12248
     12248     12251     12252     12248     12251     12253     12249     12248     12250
     12249     12248     12251     12250     12248     12251     12251     12253     12254
     12251     12253     12255     12252     12251     12253     12253     12255     12256
     12253     12255     12257     12253     12255     12258     12254     12253     12255
     12255     12258     12259     12255     12258     12260     12255     12258     12261
     12256     12255     12257     12256     12255     12258     12257     12255     12258
     12258     12261     12262     12258     12261     12263     12258     12261     12264
     12259     12258     12260     12259     12258     12261     12260     12258     12261
     12261     12264     12265     12261     12264     12266     12261     12264     12267
     12262     12261     12263     12262     12261     12264     12263     12261     12264
     12264     12267     12268     12264     12267     12269     12264     12267     12270
     12265     12264     12266     12265     12264     12267     12266     12264     12267
     12267     12270     12271     12267     12270     12272     12267     12270     12273
     12268     12267     12269     12268     12267     12270     12269     12267     12270
     12270     12273     12274     12270     12273     12275     12270     12273     12276
     12271     12270     12272     12271     12270     12273     12272     12270     12273
     12273     12276     12277     12273     12276     12278     12273     12276     12279
     12274     12273     12275     12274     12273     12276     12275     12273     12276
     12277     12276     12278     12277     12276     12279     12278     12276     12279
     12280     12283     12284     12280     12283     12285     12280     12283     12286
     12281     12280     12282     12281     12280     12283     12282     12280     12283
     12283     12286     12287     12283     12286     12288     12283     12286     12289
     12284     12283     12285     12284     12283     12286     12285     12283     12286
     12286     12289     12290     12286     12289     12291     12286     12289     12292
     12287     12286     12288     12287     12286     12289     12288     12286     12289
     12289     12292     12293     12289     12292     12294     12289     12292     12295
     12290     12289     12291     12290     12289     12292     12291     12289     12292
     12292     12295     12296     12292     12295     12297     12292     12295     12298
     12293     12292     12294     12293     12292     12295     12294     12292     12295
     12295     12298     12299     12295     12298     12300     12295     12298     12301
     12296     12295     12297     12296     12295     12298     12297     12295     12298
     12298     12301     12302     12298     12301     12303     12298     12301     12304
     12299     12298     12300     12299     12298     12301     12300     12298     12301
     12301     12304     12305     12301     12304     12306     12301     12304     12307
     12302     12301     12303     12302     12301     12304     12303     12301     12304
     12304     12307     12308     12304     12307     12309     12304     12307     12310
     12305     12304     12306     12305     12304     12307     12306     12304     12307
     12307     12310     12311     12307     12310     12312     12307     12310     12313
     12308     12307     12309     12308     12307     12310     12309     12307     12310
     12310     12313     12314     12310     12313     12315     12310     12313     12316
     12311     12310     12312     12311     12310     12313     12312     12310     12313
     12313     12316     12317     12313     12316     12318     12313     12316     12319
     12314     12313     12315     12314     12313     12316     12315     12313     12316
     12316     12319     12320     12316     12319     12321     12316     12319     12322
     12317     12316     12318     12317     12316     12319     12318     12316     12319
     12320     12319     12321     12320     12319     12322     12321     12319     12322
     12323     12324     12325     12323     12324     12326     12323     12324     12339
     12323     12327     12328     12323     12327     12329     12323     12327     12330
     12323     12331     12332     12323     12331     12333     12323     12331     12334
     12323     12335     12336     12323     12335     12337     12323     12335     12338
     12324     12323     12327     12324     12323     12331     12324     12323     12335
     12324     12339     12340     12324     12339     12341     12324     12339     12345
     12325     12324     12326     12325     12324     12339     12326     12324     12339
     12327     12323     12331     12327     12323     12335     12328     12327     12329
     12328     12327     12330     12329     12327     12330     12331     12323     12335
     12332     12331     12333     12332     12331     12334     12333     12331     12334
     12336     12335     12337     12336     12335     12338     12337     12335     12338
     12339     12345     12342     12340     12339     12341     12340     12339     12345
     12341     12339     12345     12342     12346     12347     12343     12342     12344
     12343     12342     12345     12343     12342     12346     12344     12342     12345
     12344     12342     12346     12345     12342     12346     12346     12347     12348
     12346     12347     12349     12346     12347     12350     12347     12350     12351
     12347     12350     12352     12347     12350     12358     12348     12347     12349
     12348     12347     12350     12349     12347     12350     12350     12352     12353
     12350     12358     12359     12350     12358     12360     12350     12358     12361
     12351     12350     12352     12351     12350     12358     12352     12350     12358
     12352     12353     12354     12352     12353     12355     12353     12355     12356
     12353     12355     12357     12353     12355     12367     12354     12353     12355
     12355     12367     12368     12355     12367     12369     12355     12367     12370
     12356     12355     12357     12356     12355     12367     12357     12355     12367
     12358     12361     12362     12359     12358     12360     12359     12358     12361
     12360     12358     12361     12361     12362     12363     12361     12362     12364
     12362     12364     12365     12362     12364     12366     12362     12364     12414
     12363     12362     12364     12364     12414     12415     12364     12414     12416
     12364     12414     12417     12365     12364     12366     12365     12364     12414
     12366     12364     12414     12367     12370     12371     12367     12370     12372
     12367     12370     12373     12368     12367     12369     12368     12367     12370
     12369     12367     12370     12370     12373     12374     12370     12373     12375
     12370     12373     12376     12371     12370     12372     12371     12370     12373
     12372     12370     12373     12373     12376     12377     12373     12376     12378
     12373     12376     12379     12374     12373     12375     12374     12373     12376
     12375     12373     12376     12376     12379     12380     12376     12379     12381
     12376     12379     12382     12377     12376     12378     12377     12376     12379
     12378     12376     12379     12379     12382     12383     12379     12382     12384
     12379     12382     12385     12380     12379     12381     12380     12379     12382
     12381     12379     12382     12382     12385     12386     12382     12385     12387
     12383     12382     12384     12383     12382     12385     12384     12382     12385
     12385     12387     12388     12385     12387     12389     12386     12385     12387
     12387     12389     12390     12387     12389     12391     12387     12389     12392
     12388     12387     12389     12389     12392     12393     12389     12392     12394
     12389     12392     12395     12390     12389     12391     12390     12389     12392
     12391     12389     12392     12392     12395     12396     12392     12395     12397
     12392     12395     12398     12393     12392     12394     12393     12392     12395
     12394     12392     12395     12395     12398     12399     12395     12398     12400
     12395     12398     12401     12396     12395     12397     12396     12395     12398
     12397     12395     12398     12398     12401     12402     12398     12401     12403
     12398     12401     12404     12399     12398     12400     12399     12398     12401
     12400     12398     12401     12401     12404     12405     12401     12404     12406
     12401     12404     12407     12402     12401     12403     12402     12401     12404
     12403     12401     12404     12404     12407     12408     12404     12407     12409
     12404     12407     12410     12405     12404     12406     12405     12404     12407
     12406     12404     12407     12407     12410     12411     12407     12410     12412
     12407     12410     12413     12408     12407     12409     12408     12407     12410
     12409     12407     12410     12411     12410     12412     12411     12410     12413
     12412     12410     12413     12414     12417     12418     12414     12417     12419
     12414     12417     12420     12415     12414     12416     12415     12414     12417
     12416     12414     12417     12417     12420     12421     12417     12420     12422
     12417     12420     12423     12418     12417     12419     12418     12417     12420
     12419     12417     12420     12420     12423     12424     12420     12423     12425
     12420     12423     12426     12421     12420     12422     12421     12420     12423
     12422     12420     12423     12423     12426     12427     12423     12426     12428
     12423     12426     12429     12424     12423     12425     12424     12423     12426
     12425     12423     12426     12426     12429     12430     12426     12429     12431
     12426     12429     12432     12427     12426     12428     12427     12426     12429
     12428     12426     12429     12429     12432     12433     12429     12432     12434
     12429     12432     12435     12430     12429     12431     12430     12429     12432
     12431     12429     12432     12432     12435     12436     12432     12435     12437
     12432     12435     12438     12433     12432     12434     12433     12432     12435
     12434     12432     12435     12435     12438     12439     12435     12438     12440
     12435     12438     12441     12436     12435     12437     12436     12435     12438
     12437     12435     12438     12438     12441     12442     12438     12441     12443
     12438     12441     12444     12439     12438     12440     12439     12438     12441
     12440     12438     12441     12441     12444     12445     12441     12444     12446
     12441     12444     12447     12442     12441     12443     12442     12441     12444
     12443     12441     12444     12444     12447     12448     12444     12447     12449
     12444     12447     12450     12445     12444     12446     12445     12444     12447
     12446     12444     12447     12447     12450     12451     12447     12450     12452
     12447     12450     12453     12448     12447     12449     12448     12447     12450
     12449     12447     12450     12450     12453     12454     12450     12453     12455
     12450     12453     12456     12451     12450     12452     12451     12450     12453
     12452     12450     12453     12454     12453     12455     12454     12453     12456
     12455     12453     12456     12457     12458     12459     12457     12458     12460
     12457     12458     12473     12457     12461     12462     12457     12461     12463
     12457     12461     12464     12457     12465     12466     12457     12465     12467
     12457     12465     12468     12457     12469     12470     12457     12469     12471
     12457     12469     12472     12458     12457     12461     12458     12457     12465
     12458     12457     12469     12458     12473     12474     12458     12473     12475
     12458     12473     12479     12459     12458     12460     12459     12458     12473
     12460     12458     12473     12461     12457     12465     12461     12457     12469
     12462     12461     12463     12462     12461     12464     12463     12461     12464
     12465     12457     12469     12466     12465     12467     12466     12465     12468
     12467     12465     12468     12470     12469     12471     12470     12469     12472
     12471     12469     12472     12473     12479     12476     12474     12473     12475
     12474     12473     12479     12475     12473     12479     12476     12480     12481
     12477     12476     12478     12477     12476     12479     12477     12476     12480
     12478     12476     12479     12478     12476     12480     12479     12476     12480
     12480     12481     12482     12480     12481     12483     12480     12481     12484
     12481     12484     12485     12481     12484     12486     12481     12484     12492
     12482     12481     12483     12482     12481     12484     12483     12481     12484
     12484     12486     12487     12484     12492     12493     12484     12492     12494
     12484     12492     12495     12485     12484     12486     12485     12484     12492
     12486     12484     12492     12486     12487     12488     12486     12487     12489
     12487     12489     12490     12487     12489     12491     12487     12489     12501
     12488     12487     12489     12489     12501     12502     12489     12501     12503
     12489     12501     12504     12490     12489     12491     12490     12489     12501
     12491     12489     12501     12492     12495     12496     12493     12492     12494
     12493     12492     12495     12494     12492     12495     12495     12496     12497
     12495     12496     12498     12496     12498     12499     12496     12498     12500
     12496     12498     12548     12497     12496     12498     12498     12548     12549
     12498     12548     12550     12498     12548     12551     12499     12498     12500
     12499     12498     12548     12500     12498     12548     12501     12504     12505
     12501     12504     12506     12501     12504     12507     12502     12501     12503
     12502     12501     12504     12503     12501     12504     12504     12507     12508
     12504     12507     12509     12504     12507     12510     12505     12504     12506
     12505     12504     12507     12506     12504     12507     12507     12510     12511
     12507     12510     12512     12507     12510     12513     12508     12507     12509
     12508     12507     12510     12509     12507     12510     12510     12513     12514
     12510     12513     12515     12510     12513     12516     12511     12510     12512
     12511     12510     12513     12512     12510     12513     12513     12516     12517
     12513     12516     12518     12513     12516     12519     12514     12513     12515
     12514     12513     12516     12515     12513     12516     12516     12519     12520
     12516     12519     12521     12517     12516     12518     12517     12516     12519
     12518     12516     12519     12519     12521     12522     12519     12521     12523
     12520     12519     12521     12521     12523     12524     12521     12523     12525
     12521     12523     12526     12522     12521     12523     12523     12526     12527
     12523     12526     12528     12523     12526     12529     12524     12523     12525
     12524     12523     12526     12525     12523     12526     12526     12529     12530
     12526     12529     12531     12526     12529     12532     12527     12526     12528
     12527     12526     12529     12528     12526     12529     12529     12532     12533
     12529     12532     12534     12529     12532     12535     12530     12529     12531
     12530     12529     12532     12531     12529     12532     12532     12535     12536
     12532     12535     12537     12532     12535     12538     12533     12532     12534
     12533     12532     12535     12534     12532     12535     12535     12538     12539
     12535     12538     12540     12535     12538     12541     12536     12535     12537
     12536     12535     12538     12537     12535     12538     12538     12541     12542
     12538     12541     12543     12538     12541     12544     12539     12538     12540
     12539     12538     12541     12540     12538     12541     12541     12544     12545
     12541     12544     12546     12541     12544     12547     12542     12541     12543
     12542     12541     12544     12543     12541     12544     12545     12544     12546
     12545     12544     12547     12546     12544     12547     12548     12551     12552
     12548     12551     12553     12548     12551     12554     12549     12548     12550
     12549     12548     12551     12550     12548     12551     12551     12554     12555
     12551     12554     12556     12551     12554     12557     12552     12551     12553
     12552     12551     12554     12553     12551     12554     12554     12557     12558
     12554     12557     12559     12554     12557     12560     12555     12554     12556
     12555     12554     12557     12556     12554     12557     12557     12560     12561
     12557     12560     12562     12557     12560     12563     12558     12557     12559
     12558     12557     12560     12559     12557     12560     12560     12563     12564
     12560     12563     12565     12560     12563     12566     12561     12560     12562
     12561     12560     12563     12562     12560     12563     12563     12566     12567
     12563     12566     12568     12563     12566     12569     12564     12563     12565
     12564     12563     12566     12565     12563     12566     12566     12569     12570
     12566     12569     12571     12566     12569     12572     12567     12566     12568
     12567     12566     12569     12568     12566     12569     12569     12572     12573
     12569     12572     12574     12569     12572     12575     12570     12569     12571
     12570     12569     12572     12571     12569     12572     12572     12575     12576
     12572     12575     12577     12572     12575     12578     12573     12572     12574
     12573     12572     12575     12574     12572     12575     12575     12578     12579
     12575     12578     12580     12575     12578     12581     12576     12575     12577
     12576     12575     12578     12577     12575     12578     12578     12581     12582
     12578     12581     12583     12578     12581     12584     12579     12578     12580
     12579     12578     12581     12580     12578     12581     12581     12584     12585
     12581     12584     12586     12581     12584     12587     12582     12581     12583
     12582     12581     12584     12583     12581     12584     12584     12587     12588
     12584     12587     12589     12584     12587     12590     12585     12584     12586
     12585     12584     12587     12586     12584     12587     12588     12587     12589
     12588     12587     12590     12589     12587     12590     12591     12592     12593
     12591     12592     12594     12591     12592     12607     12591     12595     12596
     12591     12595     12597     12591     12595     12598     12591     12599     12600
     12591     12599     12601     12591     12599     12602     12591     12603     12604
     12591     12603     12605     12591     12603     12606     12592     12591     12595
     12592     12591     12599     12592     12591     12603     12592     12607     12608
     12592     12607     12609     12592     12607     12613     12593     12592     12594
     12593     12592     12607     12594     12592     12607     12595     12591     12599
     12595     12591     12603     12596     12595     12597     12596     12595     12598
     12597     12595     12598     12599     12591     12603     12600     12599     12601
     12600     12599     12602     12601     12599     12602     12604     12603     12605
     12604     12603     12606     12605     12603     12606     12607     12613     12610
     12608     12607     12609     12608     12607     12613     12609     12607     12613
     12610     12614     12615     12611     12610     12612     12611     12610     12613
     12611     12610     12614     12612     12610     12613     12612     12610     12614
     12613     12610     12614     12614     12615     12616     12614     12615     12617
     12614     12615     12618     12615     12618     12619     12615     12618     12620
     12615     12618     12626     12616     12615     12617     12616     12615     12618
     12617     12615     12618     12618     12620     12621     12618     12626     12627
     12618     12626     12628     12618     12626     12629     12619     12618     12620
     12619     12618     12626     12620     12618     12626     12620     12621     12622
     12620     12621     12623     12621     12623     12624     12621     12623     12625
     12621     12623     12635     12622     12621     12623     12623     12635     12636
     12623     12635     12637     12623     12635     12638     12624     12623     12625
     12624     12623     12635     12625     12623     12635     12626     12629     12630
     12627     12626     12628     12627     12626     12629     12628     12626     12629
     12629     12630     12631     12629     12630     12632     12630     12632     12633
     12630     12632     12634     12630     12632     12682     12631     12630     12632
     12632     12682     12683     12632     12682     12684     12632     12682     12685
     12633     12632     12634     12633     12632     12682     12634     12632     12682
     12635     12638     12639     12635     12638     12640     12635     12638     12641
     12636     12635     12637     12636     12635     12638     12637     12635     12638
     12638     12641     12642     12638     12641     12643     12638     12641     12644
     12639     12638     12640     12639     12638     12641     12640     12638     12641
     12641     12644     12645     12641     12644     12646     12641     12644     12647
     12642     12641     12643     12642     12641     12644     12643     12641     12644
     12644     12647     12648     12644     12647     12649     12644     12647     12650
     12645     12644     12646     12645     12644     12647     12646     12644     12647
     12647     12650     12651     12647     12650     12652     12647     12650     12653
     12648     12647     12649     12648     12647     12650     12649     12647     12650
     12650     12653     12654     12650     12653     12655     12651     12650     12652
     12651     12650     12653     12652     12650     12653     12653     12655     12656
     12653     12655     12657     12654     12653     12655     12655     12657     12658
     12655     12657     12659     12655     12657     12660     12656     12655     12657
     12657     12660     12661     12657     12660     12662     12657     12660     12663
     12658     12657     12659     12658     12657     12660     12659     12657     12660
     12660     12663     12664     12660     12663     12665     12660     12663     12666
     12661     12660     12662     12661     12660     12663     12662     12660     12663
     12663     12666     12667     12663     12666     12668     12663     12666     12669
     12664     12663     12665     12664     12663     12666     12665     12663     12666
     12666     12669     12670     12666     12669     12671     12666     12669     12672
     12667     12666     12668     12667     12666     12669     12668     12666     12669
     12669     12672     12673     12669     12672     12674     12669     12672     12675
     12670     12669     12671     12670     12669     12672     12671     12669     12672
     12672     12675     12676     12672     12675     12677     12672     12675     12678
     12673     12672     12674     12673     12672     12675     12674     12672     12675
     12675     12678     12679     12675     12678     12680     12675     12678     12681
     12676     12675     12677     12676     12675     12678     12677     12675     12678
     12679     12678     12680     12679     12678     12681     12680     12678     12681
     12682     12685     12686     12682     12685     12687     12682     12685     12688
     12683     12682     12684     12683     12682     12685     12684     12682     12685
     12685     12688     12689     12685     12688     12690     12685     12688     12691
     12686     12685     12687     12686     12685     12688     12687     12685     12688
     12688     12691     12692     12688     12691     12693     12688     12691     12694
     12689     12688     12690     12689     12688     12691     12690     12688     12691
     12691     12694     12695     12691     12694     12696     12691     12694     12697
     12692     12691     12693     12692     12691     12694     12693     12691     12694
     12694     12697     12698     12694     12697     12699     12694     12697     12700
     12695     12694     12696     12695     12694     12697     12696     12694     12697
     12697     12700     12701     12697     12700     12702     12697     12700     12703
     12698     12697     12699     12698     12697     12700     12699     12697     12700
     12700     12703     12704     12700     12703     12705     12700     12703     12706
     12701     12700     12702     12701     12700     12703     12702     12700     12703
     12703     12706     12707     12703     12706     12708     12703     12706     12709
     12704     12703     12705     12704     12703     12706     12705     12703     12706
     12706     12709     12710     12706     12709     12711     12706     12709     12712
     12707     12706     12708     12707     12706     12709     12708     12706     12709
     12709     12712     12713     12709     12712     12714     12709     12712     12715
     12710     12709     12711     12710     12709     12712     12711     12709     12712
     12712     12715     12716     12712     12715     12717     12712     12715     12718
     12713     12712     12714     12713     12712     12715     12714     12712     12715
     12715     12718     12719     12715     12718     12720     12715     12718     12721
     12716     12715     12717     12716     12715     12718     12717     12715     12718
     12718     12721     12722     12718     12721     12723     12718     12721     12724
     12719     12718     12720     12719     12718     12721     12720     12718     12721
     12722     12721     12723     12722     12721     12724     12723     12721     12724
     12725     12726     12727     12725     12726     12728     12725     12726     12741
     12725     12729     12730     12725     12729     12731     12725     12729     12732
     12725     12733     12734     12725     12733     12735     12725     12733     12736
     12725     12737     12738     12725     12737     12739     12725     12737     12740
     12726     12725     12729     12726     12725     12733     12726     12725     12737
     12726     12741     12742     12726     12741     12743     12726     12741     12747
     12727     12726     12728     12727     12726     12741     12728     12726     12741
     12729     12725     12733     12729     12725     12737     12730     12729     12731
     12730     12729     12732     12731     12729     12732     12733     12725     12737
     12734     12733     12735     12734     12733     12736     12735     12733     12736
     12738     12737     12739     12738     12737     12740     12739     12737     12740
     12741     12747     12744     12742     12741     12743     12742     12741     12747
     12743     12741     12747     12744     12748     12749     12745     12744     12746
     12745     12744     12747     12745     12744     12748     12746     12744     12747
     12746     12744     12748     12747     12744     12748     12748     12749     12750
     12748     12749     12751     12748     12749     12752     12749     12752     12753
     12749     12752     12754     12749     12752     12760     12750     12749     12751
     12750     12749     12752     12751     12749     12752     12752     12754     12755
     12752     12760     12761     12752     12760     12762     12752     12760     12763
     12753     12752     12754     12753     12752     12760     12754     12752     12760
     12754     12755     12756     12754     12755     12757     12755     12757     12758
     12755     12757     12759     12755     12757     12769     12756     12755     12757
     12757     12769     12770     12757     12769     12771     12757     12769     12772
     12758     12757     12759     12758     12757     12769     12759     12757     12769
     12760     12763     12764     12761     12760     12762     12761     12760     12763
     12762     12760     12763     12763     12764     12765     12763     12764     12766
     12764     12766     12767     12764     12766     12768     12764     12766     12816
     12765     12764     12766     12766     12816     12817     12766     12816     12818
     12766     12816     12819     12767     12766     12768     12767     12766     12816
     12768     12766     12816     12769     12772     12773     12769     12772     12774
     12769     12772     12775     12770     12769     12771     12770     12769     12772
     12771     12769     12772     12772     12775     12776     12772     12775     12777
     12772     12775     12778     12773     12772     12774     12773     12772     12775
     12774     12772     12775     12775     12778     12779     12775     12778     12780
     12775     12778     12781     12776     12775     12777     12776     12775     12778
     12777     12775     12778     12778     12781     12782     12778     12781     12783
     12778     12781     12784     12779     12778     12780     12779     12778     12781
     12780     12778     12781     12781     12784     12785     12781     12784     12786
     12781     12784     12787     12782     12781     12783     12782     12781     12784
     12783     12781     12784     12784     12787     12788     12784     12787     12789
     12785     12784     12786     12785     12784     12787     12786     12784     12787
     12787     12789     12790     12787     12789     12791     12788     12787     12789
     12789     12791     12792     12789     12791     12793     12789     12791     12794
     12790     12789     12791     12791     12794     12795     12791     12794     12796
     12791     12794     12797     12792     12791     12793     12792     12791     12794
     12793     12791     12794     12794     12797     12798     12794     12797     12799
     12794     12797     12800     12795     12794     12796     12795     12794     12797
     12796     12794     12797     12797     12800     12801     12797     12800     12802
     12797     12800     12803     12798     12797     12799     12798     12797     12800
     12799     12797     12800     12800     12803     12804     12800     12803     12805
     12800     12803     12806     12801     12800     12802     12801     12800     12803
     12802     12800     12803     12803     12806     12807     12803     12806     12808
     12803     12806     12809     12804     12803     12805     12804     12803     12806
     12805     12803     12806     12806     12809     12810     12806     12809     12811
     12806     12809     12812     12807     12806     12808     12807     12806     12809
     12808     12806     12809     12809     12812     12813     12809     12812     12814
     12809     12812     12815     12810     12809     12811     12810     12809     12812
     12811     12809     12812     12813     12812     12814     12813     12812     12815
     12814     12812     12815     12816     12819     12820     12816     12819     12821
     12816     12819     12822     12817     12816     12818     12817     12816     12819
     12818     12816     12819     12819     12822     12823     12819     12822     12824
     12819     12822     12825     12820     12819     12821     12820     12819     12822
     12821     12819     12822     12822     12825     12826     12822     12825     12827
     12822     12825     12828     12823     12822     12824     12823     12822     12825
     12824     12822     12825     12825     12828     12829     12825     12828     12830
     12825     12828     12831     12826     12825     12827     12826     12825     12828
     12827     12825     12828     12828     12831     12832     12828     12831     12833
     12828     12831     12834     12829     12828     12830     12829     12828     12831
     12830     12828     12831     12831     12834     12835     12831     12834     12836
     12831     12834     12837     12832     12831     12833     12832     12831     12834
     12833     12831     12834     12834     12837     12838     12834     12837     12839
     12834     12837     12840     12835     12834     12836     12835     12834     12837
     12836     12834     12837     12837     12840     12841     12837     12840     12842
     12837     12840     12843     12838     12837     12839     12838     12837     12840
     12839     12837     12840     12840     12843     12844     12840     12843     12845
     12840     12843     12846     12841     12840     12842     12841     12840     12843
     12842     12840     12843     12843     12846     12847     12843     12846     12848
     12843     12846     12849     12844     12843     12845     12844     12843     12846
     12845     12843     12846     12846     12849     12850     12846     12849     12851
     12846     12849     12852     12847     12846     12848     12847     12846     12849
     12848     12846     12849     12849     12852     12853     12849     12852     12854
     12849     12852     12855     12850     12849     12851     12850     12849     12852
     12851     12849     12852     12852     12855     12856     12852     12855     12857
     12852     12855     12858     12853     12852     12854     12853     12852     12855
     12854     12852     12855     12856     12855     12857     12856     12855     12858
     12857     12855     12858     12859     12860     12861     12859     12860     12862
     12859     12860     12875     12859     12863     12864     12859     12863     12865
     12859     12863     12866     12859     12867     12868     12859     12867     12869
     12859     12867     12870     12859     12871     12872     12859     12871     12873
     12859     12871     12874     12860     12859     12863     12860     12859     12867
     12860     12859     12871     12860     12875     12876     12860     12875     12877
     12860     12875     12881     12861     12860     12862     12861     12860     12875
     12862     12860     12875     12863     12859     12867     12863     12859     12871
     12864     12863     12865     12864     12863     12866     12865     12863     12866
     12867     12859     12871     12868     12867     12869     12868     12867     12870
     12869     12867     12870     12872     12871     12873     12872     12871     12874
     12873     12871     12874     12875     12881     12878     12876     12875     12877
     12876     12875     12881     12877     12875     12881     12878     12882     12883
     12879     12878     12880     12879     12878     12881     12879     12878     12882
     12880     12878     12881     12880     12878     12882     12881     12878     12882
     12882     12883     12884     12882     12883     12885     12882     12883     12886
     12883     12886     12887     12883     12886     12888     12883     12886     12894
     12884     12883     12885     12884     12883     12886     12885     12883     12886
     12886     12888     12889     12886     12894     12895     12886     12894     12896
     12886     12894     12897     12887     12886     12888     12887     12886     12894
     12888     12886     12894     12888     12889     12890     12888     12889     12891
     12889     12891     12892     12889     12891     12893     12889     12891     12903
     12890     12889     12891     12891     12903     12904     12891     12903     12905
     12891     12903     12906     12892     12891     12893     12892     12891     12903
     12893     12891     12903     12894     12897     12898     12895     12894     12896
     12895     12894     12897     12896     12894     12897     12897     12898     12899
     12897     12898     12900     12898     12900     12901     12898     12900     12902
     12898     12900     12950     12899     12898     12900     12900     12950     12951
     12900     12950     12952     12900     12950     12953     12901     12900     12902
     12901     12900     12950     12902     12900     12950     12903     12906     12907
     12903     12906     12908     12903     12906     12909     12904     12903     12905
     12904     12903     12906     12905     12903     12906     12906     12909     12910
     12906     12909     12911     12906     12909     12912     12907     12906     12908
     12907     12906     12909     12908     12906     12909     12909     12912     12913
     12909     12912     12914     12909     12912     12915     12910     12909     12911
     12910     12909     12912     12911     12909     12912     12912     12915     12916
     12912     12915     12917     12912     12915     12918     12913     12912     12914
     12913     12912     12915     12914     12912     12915     12915     12918     12919
     12915     12918     12920     12915     12918     12921     12916     12915     12917
     12916     12915     12918     12917     12915     12918     12918     12921     12922
     12918     12921     12923     12919     12918     12920     12919     12918     12921
     12920     12918     12921     12921     12923     12924     12921     12923     12925
     12922     12921     12923     12923     12925     12926     12923     12925     12927
     12923     12925     12928     12924     12923     12925     12925     12928     12929
     12925     12928     12930     12925     12928     12931     12926     12925     12927
     12926     12925     12928     12927     12925     12928     12928     12931     12932
     12928     12931     12933     12928     12931     12934     12929     12928     12930
     12929     12928     12931     12930     12928     12931     12931     12934     12935
     12931     12934     12936     12931     12934     12937     12932     12931     12933
     12932     12931     12934     12933     12931     12934     12934     12937     12938
     12934     12937     12939     12934     12937     12940     12935     12934     12936
     12935     12934     12937     12936     12934     12937     12937     12940     12941
     12937     12940     12942     12937     12940     12943     12938     12937     12939
     12938     12937     12940     12939     12937     12940     12940     12943     12944
     12940     12943     12945     12940     12943     12946     12941     12940     12942
     12941     12940     12943     12942     12940     12943     12943     12946     12947
     12943     12946     12948     12943     12946     12949     12944     12943     12945
     12944     12943     12946     12945     12943     12946     12947     12946     12948
     12947     12946     12949     12948     12946     12949     12950     12953     12954
     12950     12953     12955     12950     12953     12956     12951     12950     12952
     12951     12950     12953     12952     12950     12953     12953     12956     12957
     12953     12956     12958     12953     12956     12959     12954     12953     12955
     12954     12953     12956     12955     12953     12956     12956     12959     12960
     12956     12959     12961     12956     12959     12962     12957     12956     12958
     12957     12956     12959     12958     12956     12959     12959     12962     12963
     12959     12962     12964     12959     12962     12965     12960     12959     12961
     12960     12959     12962     12961     12959     12962     12962     12965     12966
     12962     12965     12967     12962     12965     12968     12963     12962     12964
     12963     12962     12965     12964     12962     12965     12965     12968     12969
     12965     12968     12970     12965     12968     12971     12966     12965     12967
     12966     12965     12968     12967     12965     12968     12968     12971     12972
     12968     12971     12973     12968     12971     12974     12969     12968     12970
     12969     12968     12971     12970     12968     12971     12971     12974     12975
     12971     12974     12976     12971     12974     12977     12972     12971     12973
     12972     12971     12974     12973     12971     12974     12974     12977     12978
     12974     12977     12979     12974     12977     12980     12975     12974     12976
     12975     12974     12977     12976     12974     12977     12977     12980     12981
     12977     12980     12982     12977     12980     12983     12978     12977     12979
     12978     12977     12980     12979     12977     12980     12980     12983     12984
     12980     12983     12985     12980     12983     12986     12981     12980     12982
     12981     12980     12983     12982     12980     12983     12983     12986     12987
     12983     12986     12988     12983     12986     12989     12984     12983     12985
     12984     12983     12986     12985     12983     12986     12986     12989     12990
     12986     12989     12991     12986     12989     12992     12987     12986     12988
     12987     12986     12989     12988     12986     12989     12990     12989     12991
     12990     12989     12992     12991     12989     12992     12993     12994     12995
     12993     12994     12996     12993     12994     13009     12993     12997     12998
     12993     12997     12999     12993     12997     13000     12993     13001     13002
     12993     13001     13003     12993     13001     13004     12993     13005     13006
     12993     13005     13007     12993     13005     13008     12994     12993     12997
     12994     12993     13001     12994     12993     13005     12994     13009     13010
     12994     13009     13011     12994     13009     13015     12995     12994     12996
     12995     12994     13009     12996     12994     13009     12997     12993     13001
     12997     12993     13005     12998     12997     12999     12998     12997     13000
     12999     12997     13000     13001     12993     13005     13002     13001     13003
     13002     13001     13004     13003     13001     13004     13006     13005     13007
     13006     13005     13008     13007     13005     13008     13009     13015     13012
     13010     13009     13011     13010     13009     13015     13011     13009     13015
     13012     13016     13017     13013     13012     13014     13013     13012     13015
     13013     13012     13016     13014     13012     13015     13014     13012     13016
     13015     13012     13016     13016     13017     13018     13016     13017     13019
     13016     13017     13020     13017     13020     13021     13017     13020     13022
     13017     13020     13028     13018     13017     13019     13018     13017     13020
     13019     13017     13020     13020     13022     13023     13020     13028     13029
     13020     13028     13030     13020     13028     13031     13021     13020     13022
     13021     13020     13028     13022     13020     13028     13022     13023     13024
     13022     13023     13025     13023     13025     13026     13023     13025     13027
     13023     13025     13037     13024     13023     13025     13025     13037     13038
     13025     13037     13039     13025     13037     13040     13026     13025     13027
     13026     13025     13037     13027     13025     13037     13028     13031     13032
     13029     13028     13030     13029     13028     13031     13030     13028     13031
     13031     13032     13033     13031     13032     13034     13032     13034     13035
     13032     13034     13036     13032     13034     13084     13033     13032     13034
     13034     13084     13085     13034     13084     13086     13034     13084     13087
     13035     13034     13036     13035     13034     13084     13036     13034     13084
     13037     13040     13041     13037     13040     13042     13037     13040     13043
     13038     13037     13039     13038     13037     13040     13039     13037     13040
     13040     13043     13044     13040     13043     13045     13040     13043     13046
     13041     13040     13042     13041     13040     13043     13042     13040     13043
     13043     13046     13047     13043     13046     13048     13043     13046     13049
     13044     13043     13045     13044     13043     13046     13045     13043     13046
     13046     13049     13050     13046     13049     13051     13046     13049     13052
     13047     13046     13048     13047     13046     13049     13048     13046     13049
     13049     13052     13053     13049     13052     13054     13049     13052     13055
     13050     13049     13051     13050     13049     13052     13051     13049     13052
     13052     13055     13056     13052     13055     13057     13053     13052     13054
     13053     13052     13055     13054     13052     13055     13055     13057     13058
     13055     13057     13059     13056     13055     13057     13057     13059     13060
     13057     13059     13061     13057     13059     13062     13058     13057     13059
     13059     13062     13063     13059     13062     13064     13059     13062     13065
     13060     13059     13061     13060     13059     13062     13061     13059     13062
     13062     13065     13066     13062     13065     13067     13062     13065     13068
     13063     13062     13064     13063     13062     13065     13064     13062     13065
     13065     13068     13069     13065     13068     13070     13065     13068     13071
     13066     13065     13067     13066     13065     13068     13067     13065     13068
     13068     13071     13072     13068     13071     13073     13068     13071     13074
     13069     13068     13070     13069     13068     13071     13070     13068     13071
     13071     13074     13075     13071     13074     13076     13071     13074     13077
     13072     13071     13073     13072     13071     13074     13073     13071     13074
     13074     13077     13078     13074     13077     13079     13074     13077     13080
     13075     13074     13076     13075     13074     13077     13076     13074     13077
     13077     13080     13081     13077     13080     13082     13077     13080     13083
     13078     13077     13079     13078     13077     13080     13079     13077     13080
     13081     13080     13082     13081     13080     13083     13082     13080     13083
     13084     13087     13088     13084     13087     13089     13084     13087     13090
     13085     13084     13086     13085     13084     13087     13086     13084     13087
     13087     13090     13091     13087     13090     13092     13087     13090     13093
     13088     13087     13089     13088     13087     13090     13089     13087     13090
     13090     13093     13094     13090     13093     13095     13090     13093     13096
     13091     13090     13092     13091     13090     13093     13092     13090     13093
     13093     13096     13097     13093     13096     13098     13093     13096     13099
     13094     13093     13095     13094     13093     13096     13095     13093     13096
     13096     13099     13100     13096     13099     13101     13096     13099     13102
     13097     13096     13098     13097     13096     13099     13098     13096     13099
     13099     13102     13103     13099     13102     13104     13099     13102     13105
     13100     13099     13101     13100     13099     13102     13101     13099     13102
     13102     13105     13106     13102     13105     13107     13102     13105     13108
     13103     13102     13104     13103     13102     13105     13104     13102     13105
     13105     13108     13109     13105     13108     13110     13105     13108     13111
     13106     13105     13107     13106     13105     13108     13107     13105     13108
     13108     13111     13112     13108     13111     13113     13108     13111     13114
     13109     13108     13110     13109     13108     13111     13110     13108     13111
     13111     13114     13115     13111     13114     13116     13111     13114     13117
     13112     13111     13113     13112     13111     13114     13113     13111     13114
     13114     13117     13118     13114     13117     13119     13114     13117     13120
     13115     13114     13116     13115     13114     13117     13116     13114     13117
     13117     13120     13121     13117     13120     13122     13117     13120     13123
     13118     13117     13119     13118     13117     13120     13119     13117     13120
     13120     13123     13124     13120     13123     13125     13120     13123     13126
     13121     13120     13122     13121     13120     13123     13122     13120     13123
     13124     13123     13125     13124     13123     13126     13125     13123     13126
     13127     13128     13129     13127     13128     13130     13127     13128     13143
     13127     13131     13132     13127     13131     13133     13127     13131     13134
     13127     13135     13136     13127     13135     13137     13127     13135     13138
     13127     13139     13140     13127     13139     13141     13127     13139     13142
     13128     13127     13131     13128     13127     13135     13128     13127     13139
     13128     13143     13144     13128     13143     13145     13128     13143     13149
     13129     13128     13130     13129     13128     13143     13130     13128     13143
     13131     13127     13135     13131     13127     13139     13132     13131     13133
     13132     13131     13134     13133     13131     13134     13135     13127     13139
     13136     13135     13137     13136     13135     13138     13137     13135     13138
     13140     13139     13141     13140     13139     13142     13141     13139     13142
     13143     13149     13146     13144     13143     13145     13144     13143     13149
     13145     13143     13149     13146     13150     13151     13147     13146     13148
     13147     13146     13149     13147     13146     13150     13148     13146     13149
     13148     13146     13150     13149     13146     13150     13150     13151     13152
     13150     13151     13153     13150     13151     13154     13151     13154     13155
     13151     13154     13156     13151     13154     13162     13152     13151     13153
     13152     13151     13154     13153     13151     13154     13154     13156     13157
     13154     13162     13163     13154     13162     13164     13154     13162     13165
     13155     13154     13156     13155     13154     13162     13156     13154     13162
     13156     13157     13158     13156     13157     13159     13157     13159     13160
     13157     13159     13161     13157     13159     13171     13158     13157     13159
     13159     13171     13172     13159     13171     13173     13159     13171     13174
     13160     13159     13161     13160     13159     13171     13161     13159     13171
     13162     13165     13166     13163     13162     13164     13163     13162     13165
     13164     13162     13165     13165     13166     13167     13165     13166     13168
     13166     13168     13169     13166     13168     13170     13166     13168     13218
     13167     13166     13168     13168     13218     13219     13168     13218     13220
     13168     13218     13221     13169     13168     13170     13169     13168     13218
     13170     13168     13218     13171     13174     13175     13171     13174     13176
     13171     13174     13177     13172     13171     13173     13172     13171     13174
     13173     13171     13174     13174     13177     13178     13174     13177     13179
     13174     13177     13180     13175     13174     13176     13175     13174     13177
     13176     13174     13177     13177     13180     13181     13177     13180     13182
     13177     13180     13183     13178     13177     13179     13178     13177     13180
     13179     13177     13180     13180     13183     13184     13180     13183     13185
     13180     13183     13186     13181     13180     13182     13181     13180     13183
     13182     13180     13183     13183     13186     13187     13183     13186     13188
     13183     13186     13189     13184     13183     13185     13184     13183     13186
     13185     13183     13186     13186     13189     13190     13186     13189     13191
     13187     13186     13188     13187     13186     13189     13188     13186     13189
     13189     13191     13192     13189     13191     13193     13190     13189     13191
     13191     13193     13194     13191     13193     13195     13191     13193     13196
     13192     13191     13193     13193     13196     13197     13193     13196     13198
     13193     13196     13199     13194     13193     13195     13194     13193     13196
     13195     13193     13196     13196     13199     13200     13196     13199     13201
     13196     13199     13202     13197     13196     13198     13197     13196     13199
     13198     13196     13199     13199     13202     13203     13199     13202     13204
     13199     13202     13205     13200     13199     13201     13200     13199     13202
     13201     13199     13202     13202     13205     13206     13202     13205     13207
     13202     13205     13208     13203     13202     13204     13203     13202     13205
     13204     13202     13205     13205     13208     13209     13205     13208     13210
     13205     13208     13211     13206     13205     13207     13206     13205     13208
     13207     13205     13208     13208     13211     13212     13208     13211     13213
     13208     13211     13214     13209     13208     13210     13209     13208     13211
     13210     13208     13211     13211     13214     13215     13211     13214     13216
     13211     13214     13217     13212     13211     13213     13212     13211     13214
     13213     13211     13214     13215     13214     13216     13215     13214     13217
     13216     13214     13217     13218     13221     13222     13218     13221     13223
     13218     13221     13224     13219     13218     13220     13219     13218     13221
     13220     13218     13221     13221     13224     13225     13221     13224     13226
     13221     13224     13227     13222     13221     13223     13222     13221     13224
     13223     13221     13224     13224     13227     13228     13224     13227     13229
     13224     13227     13230     13225     13224     13226     13225     13224     13227
     13226     13224     13227     13227     13230     13231     13227     13230     13232
     13227     13230     13233     13228     13227     13229     13228     13227     13230
     13229     13227     13230     13230     13233     13234     13230     13233     13235
     13230     13233     13236     13231     13230     13232     13231     13230     13233
     13232     13230     13233     13233     13236     13237     13233     13236     13238
     13233     13236     13239     13234     13233     13235     13234     13233     13236
     13235     13233     13236     13236     13239     13240     13236     13239     13241
     13236     13239     13242     13237     13236     13238     13237     13236     13239
     13238     13236     13239     13239     13242     13243     13239     13242     13244
     13239     13242     13245     13240     13239     13241     13240     13239     13242
     13241     13239     13242     13242     13245     13246     13242     13245     13247
     13242     13245     13248     13243     13242     13244     13243     13242     13245
     13244     13242     13245     13245     13248     13249     13245     13248     13250
     13245     13248     13251     13246     13245     13247     13246     13245     13248
     13247     13245     13248     13248     13251     13252     13248     13251     13253
     13248     13251     13254     13249     13248     13250     13249     13248     13251
     13250     13248     13251     13251     13254     13255     13251     13254     13256
     13251     13254     13257     13252     13251     13253     13252     13251     13254
     13253     13251     13254     13254     13257     13258     13254     13257     13259
     13254     13257     13260     13255     13254     13256     13255     13254     13257
     13256     13254     13257     13258     13257     13259     13258     13257     13260
     13259     13257     13260     13261     13262     13263     13261     13262     13264
     13261     13262     13277     13261     13265     13266     13261     13265     13267
     13261     13265     13268     13261     13269     13270     13261     13269     13271
     13261     13269     13272     13261     13273     13274     13261     13273     13275
     13261     13273     13276     13262     13261     13265     13262     13261     13269
     13262     13261     13273     13262     13277     13278     13262     13277     13279
     13262     13277     13283     13263     13262     13264     13263     13262     13277
     13264     13262     13277     13265     13261     13269     13265     13261     13273
     13266     13265     13267     13266     13265     13268     13267     13265     13268
     13269     13261     13273     13270     13269     13271     13270     13269     13272
     13271     13269     13272     13274     13273     13275     13274     13273     13276
     13275     13273     13276     13277     13283     13280     13278     13277     13279
     13278     13277     13283     13279     13277     13283     13280     13284     13285
     13281     13280     13282     13281     13280     13283     13281     13280     13284
     13282     13280     13283     13282     13280     13284     13283     13280     13284
     13284     13285     13286     13284     13285     13287     13284     13285     13288
     13285     13288     13289     13285     13288     13290     13285     13288     13296
     13286     13285     13287     13286     13285     13288     13287     13285     13288
     13288     13290     13291     13288     13296     13297     13288     13296     13298
     13288     13296     13299     13289     13288     13290     13289     13288     13296
     13290     13288     13296     13290     13291     13292     13290     13291     13293
     13291     13293     13294     13291     13293     13295     13291     13293     13305
     13292     13291     13293     13293     13305     13306     13293     13305     13307
     13293     13305     13308     13294     13293     13295     13294     13293     13305
     13295     13293     13305     13296     13299     13300     13297     13296     13298
     13297     13296     13299     13298     13296     13299     13299     13300     13301
     13299     13300     13302     13300     13302     13303     13300     13302     13304
     13300     13302     13352     13301     13300     13302     13302     13352     13353
     13302     13352     13354     13302     13352     13355     13303     13302     13304
     13303     13302     13352     13304     13302     13352     13305     13308     13309
     13305     13308     13310     13305     13308     13311     13306     13305     13307
     13306     13305     13308     13307     13305     13308     13308     13311     13312
     13308     13311     13313     13308     13311     13314     13309     13308     13310
     13309     13308     13311     13310     13308     13311     13311     13314     13315
     13311     13314     13316     13311     13314     13317     13312     13311     13313
     13312     13311     13314     13313     13311     13314     13314     13317     13318
     13314     13317     13319     13314     13317     13320     13315     13314     13316
     13315     13314     13317     13316     13314     13317     13317     13320     13321
     13317     13320     13322     13317     13320     13323     13318     13317     13319
     13318     13317     13320     13319     13317     13320     13320     13323     13324
     13320     13323     13325     13321     13320     13322     13321     13320     13323
     13322     13320     13323     13323     13325     13326     13323     13325     13327
     13324     13323     13325     13325     13327     13328     13325     13327     13329
     13325     13327     13330     13326     13325     13327     13327     13330     13331
     13327     13330     13332     13327     13330     13333     13328     13327     13329
     13328     13327     13330     13329     13327     13330     13330     13333     13334
     13330     13333     13335     13330     13333     13336     13331     13330     13332
     13331     13330     13333     13332     13330     13333     13333     13336     13337
     13333     13336     13338     13333     13336     13339     13334     13333     13335
     13334     13333     13336     13335     13333     13336     13336     13339     13340
     13336     13339     13341     13336     13339     13342     13337     13336     13338
     13337     13336     13339     13338     13336     13339     13339     13342     13343
     13339     13342     13344     13339     13342     13345     13340     13339     13341
     13340     13339     13342     13341     13339     13342     13342     13345     13346
     13342     13345     13347     13342     13345     13348     13343     13342     13344
     13343     13342     13345     13344     13342     13345     13345     13348     13349
     13345     13348     13350     13345     13348     13351     13346     13345     13347
     13346     13345     13348     13347     13345     13348     13349     13348     13350
     13349     13348     13351     13350     13348     13351     13352     13355     13356
     13352     13355     13357     13352     13355     13358     13353     13352     13354
     13353     13352     13355     13354     13352     13355     13355     13358     13359
     13355     13358     13360     13355     13358     13361     13356     13355     13357
     13356     13355     13358     13357     13355     13358     13358     13361     13362
     13358     13361     13363     13358     13361     13364     13359     13358     13360
     13359     13358     13361     13360     13358     13361     13361     13364     13365
     13361     13364     13366     13361     13364     13367     13362     13361     13363
     13362     13361     13364     13363     13361     13364     13364     13367     13368
     13364     13367     13369     13364     13367     13370     13365     13364     13366
     13365     13364     13367     13366     13364     13367     13367     13370     13371
     13367     13370     13372     13367     13370     13373     13368     13367     13369
     13368     13367     13370     13369     13367     13370     13370     13373     13374
     13370     13373     13375     13370     13373     13376     13371     13370     13372
     13371     13370     13373     13372     13370     13373     13373     13376     13377
     13373     13376     13378     13373     13376     13379     13374     13373     13375
     13374     13373     13376     13375     13373     13376     13376     13379     13380
     13376     13379     13381     13376     13379     13382     13377     13376     13378
     13377     13376     13379     13378     13376     13379     13379     13382     13383
     13379     13382     13384     13379     13382     13385     13380     13379     13381
     13380     13379     13382     13381     13379     13382     13382     13385     13386
     13382     13385     13387     13382     13385     13388     13383     13382     13384
     13383     13382     13385     13384     13382     13385     13385     13388     13389
     13385     13388     13390     13385     13388     13391     13386     13385     13387
     13386     13385     13388     13387     13385     13388     13388     13391     13392
     13388     13391     13393     13388     13391     13394     13389     13388     13390
     13389     13388     13391     13390     13388     13391     13392     13391     13393
     13392     13391     13394     13393     13391     13394     13395     13396     13397
     13395     13396     13398     13395     13396     13411     13395     13399     13400
     13395     13399     13401     13395     13399     13402     13395     13403     13404
     13395     13403     13405     13395     13403     13406     13395     13407     13408
     13395     13407     13409     13395     13407     13410     13396     13395     13399
     13396     13395     13403     13396     13395     13407     13396     13411     13412
     13396     13411     13413     13396     13411     13417     13397     13396     13398
     13397     13396     13411     13398     13396     13411     13399     13395     13403
     13399     13395     13407     13400     13399     13401     13400     13399     13402
     13401     13399     13402     13403     13395     13407     13404     13403     13405
     13404     13403     13406     13405     13403     13406     13408     13407     13409
     13408     13407     13410     13409     13407     13410     13411     13417     13414
     13412     13411     13413     13412     13411     13417     13413     13411     13417
     13414     13418     13419     13415     13414     13416     13415     13414     13417
     13415     13414     13418     13416     13414     13417     13416     13414     13418
     13417     13414     13418     13418     13419     13420     13418     13419     13421
     13418     13419     13422     13419     13422     13423     13419     13422     13424
     13419     13422     13430     13420     13419     13421     13420     13419     13422
     13421     13419     13422     13422     13424     13425     13422     13430     13431
     13422     13430     13432     13422     13430     13433     13423     13422     13424
     13423     13422     13430     13424     13422     13430     13424     13425     13426
     13424     13425     13427     13425     13427     13428     13425     13427     13429
     13425     13427     13439     13426     13425     13427     13427     13439     13440
     13427     13439     13441     13427     13439     13442     13428     13427     13429
     13428     13427     13439     13429     13427     13439     13430     13433     13434
     13431     13430     13432     13431     13430     13433     13432     13430     13433
     13433     13434     13435     13433     13434     13436     13434     13436     13437
     13434     13436     13438     13434     13436     13486     13435     13434     13436
     13436     13486     13487     13436     13486     13488     13436     13486     13489
     13437     13436     13438     13437     13436     13486     13438     13436     13486
     13439     13442     13443     13439     13442     13444     13439     13442     13445
     13440     13439     13441     13440     13439     13442     13441     13439     13442
     13442     13445     13446     13442     13445     13447     13442     13445     13448
     13443     13442     13444     13443     13442     13445     13444     13442     13445
     13445     13448     13449     13445     13448     13450     13445     13448     13451
     13446     13445     13447     13446     13445     13448     13447     13445     13448
     13448     13451     13452     13448     13451     13453     13448     13451     13454
     13449     13448     13450     13449     13448     13451     13450     13448     13451
     13451     13454     13455     13451     13454     13456     13451     13454     13457
     13452     13451     13453     13452     13451     13454     13453     13451     13454
     13454     13457     13458     13454     13457     13459     13455     13454     13456
     13455     13454     13457     13456     13454     13457     13457     13459     13460
     13457     13459     13461     13458     13457     13459     13459     13461     13462
     13459     13461     13463     13459     13461     13464     13460     13459     13461
     13461     13464     13465     13461     13464     13466     13461     13464     13467
     13462     13461     13463     13462     13461     13464     13463     13461     13464
     13464     13467     13468     13464     13467     13469     13464     13467     13470
     13465     13464     13466     13465     13464     13467     13466     13464     13467
     13467     13470     13471     13467     13470     13472     13467     13470     13473
     13468     13467     13469     13468     13467     13470     13469     13467     13470
     13470     13473     13474     13470     13473     13475     13470     13473     13476
     13471     13470     13472     13471     13470     13473     13472     13470     13473
     13473     13476     13477     13473     13476     13478     13473     13476     13479
     13474     13473     13475     13474     13473     13476     13475     13473     13476
     13476     13479     13480     13476     13479     13481     13476     13479     13482
     13477     13476     13478     13477     13476     13479     13478     13476     13479
     13479     13482     13483     13479     13482     13484     13479     13482     13485
     13480     13479     13481     13480     13479     13482     13481     13479     13482
     13483     13482     13484     13483     13482     13485     13484     13482     13485
     13486     13489     13490     13486     13489     13491     13486     13489     13492
     13487     13486     13488     13487     13486     13489     13488     13486     13489
     13489     13492     13493     13489     13492     13494     13489     13492     13495
     13490     13489     13491     13490     13489     13492     13491     13489     13492
     13492     13495     13496     13492     13495     13497     13492     13495     13498
     13493     13492     13494     13493     13492     13495     13494     13492     13495
     13495     13498     13499     13495     13498     13500     13495     13498     13501
     13496     13495     13497     13496     13495     13498     13497     13495     13498
     13498     13501     13502     13498     13501     13503     13498     13501     13504
     13499     13498     13500     13499     13498     13501     13500     13498     13501
     13501     13504     13505     13501     13504     13506     13501     13504     13507
     13502     13501     13503     13502     13501     13504     13503     13501     13504
     13504     13507     13508     13504     13507     13509     13504     13507     13510
     13505     13504     13506     13505     13504     13507     13506     13504     13507
     13507     13510     13511     13507     13510     13512     13507     13510     13513
     13508     13507     13509     13508     13507     13510     13509     13507     13510
     13510     13513     13514     13510     13513     13515     13510     13513     13516
     13511     13510     13512     13511     13510     13513     13512     13510     13513
     13513     13516     13517     13513     13516     13518     13513     13516     13519
     13514     13513     13515     13514     13513     13516     13515     13513     13516
     13516     13519     13520     13516     13519     13521     13516     13519     13522
     13517     13516     13518     13517     13516     13519     13518     13516     13519
     13519     13522     13523     13519     13522     13524     13519     13522     13525
     13520     13519     13521     13520     13519     13522     13521     13519     13522
     13522     13525     13526     13522     13525     13527     13522     13525     13528
     13523     13522     13524     13523     13522     13525     13524     13522     13525
     13526     13525     13527     13526     13525     13528     13527     13525     13528
     13529     13533     13534     13529     13533     13535     13529     13533     13538
     13530     13529     13531     13530     13529     13532     13530     13529     13533
     13531     13529     13532     13531     13529     13533     13532     13529     13533
     13533     13535     13536     13533     13535     13537     13533     13538     13539
     13533     13538     13540     13533     13538     13544     13534     13533     13535
     13534     13533     13538     13535     13533     13538     13536     13535     13537
     13538     13544     13541     13539     13538     13540     13539     13538     13544
     13540     13538     13544     13541     13545     13546     13542     13541     13543
     13542     13541     13544     13542     13541     13545     13543     13541     13544
     13543     13541     13545     13544     13541     13545     13545     13546     13547
     13545     13546     13548     13545     13546     13549     13546     13549     13550
     13546     13549     13551     13546     13549     13557     13547     13546     13548
     13547     13546     13549     13548     13546     13549     13549     13551     13552
     13549     13557     13558     13549     13557     13559     13549     13557     13560
     13550     13549     13551     13550     13549     13557     13551     13549     13557
     13551     13552     13553     13551     13552     13554     13552     13554     13555
     13552     13554     13556     13552     13554     13566     13553     13552     13554
     13554     13566     13567     13554     13566     13568     13554     13566     13569
     13555     13554     13556     13555     13554     13566     13556     13554     13566
     13557     13560     13561     13558     13557     13559     13558     13557     13560
     13559     13557     13560     13560     13561     13562     13560     13561     13563
     13561     13563     13564     13561     13563     13565     13561     13563     13613
     13562     13561     13563     13563     13613     13614     13563     13613     13615
     13563     13613     13616     13564     13563     13565     13564     13563     13613
     13565     13563     13613     13566     13569     13570     13566     13569     13571
     13566     13569     13572     13567     13566     13568     13567     13566     13569
     13568     13566     13569     13569     13572     13573     13569     13572     13574
     13569     13572     13575     13570     13569     13571     13570     13569     13572
     13571     13569     13572     13572     13575     13576     13572     13575     13577
     13572     13575     13578     13573     13572     13574     13573     13572     13575
     13574     13572     13575     13575     13578     13579     13575     13578     13580
     13575     13578     13581     13576     13575     13577     13576     13575     13578
     13577     13575     13578     13578     13581     13582     13578     13581     13583
     13578     13581     13584     13579     13578     13580     13579     13578     13581
     13580     13578     13581     13581     13584     13585     13581     13584     13586
     13582     13581     13583     13582     13581     13584     13583     13581     13584
     13584     13586     13587     13584     13586     13588     13585     13584     13586
     13586     13588     13589     13586     13588     13590     13586     13588     13591
     13587     13586     13588     13588     13591     13592     13588     13591     13593
     13588     13591     13594     13589     13588     13590     13589     13588     13591
     13590     13588     13591     13591     13594     13595     13591     13594     13596
     13591     13594     13597     13592     13591     13593     13592     13591     13594
     13593     13591     13594     13594     13597     13598     13594     13597     13599
     13594     13597     13600     13595     13594     13596     13595     13594     13597
     13596     13594     13597     13597     13600     13601     13597     13600     13602
     13597     13600     13603     13598     13597     13599     13598     13597     13600
     13599     13597     13600     13600     13603     13604     13600     13603     13605
     13600     13603     13606     13601     13600     13602     13601     13600     13603
     13602     13600     13603     13603     13606     13607     13603     13606     13608
     13603     13606     13609     13604     13603     13605     13604     13603     13606
     13605     13603     13606     13606     13609     13610     13606     13609     13611
     13606     13609     13612     13607     13606     13608     13607     13606     13609
     13608     13606     13609     13610     13609     13611     13610     13609     13612
     13611     13609     13612     13613     13616     13617     13613     13616     13618
     13613     13616     13619     13614     13613     13615     13614     13613     13616
     13615     13613     13616     13616     13619     13620     13616     13619     13621
     13616     13619     13622     13617     13616     13618     13617     13616     13619
     13618     13616     13619     13619     13622     13623     13619     13622     13624
     13619     13622     13625     13620     13619     13621     13620     13619     13622
     13621     13619     13622     13622     13625     13626     13622     13625     13627
     13622     13625     13628     13623     13622     13624     13623     13622     13625
     13624     13622     13625     13625     13628     13629     13625     13628     13630
     13625     13628     13631     13626     13625     13627     13626     13625     13628
     13627     13625     13628     13628     13631     13632     13628     13631     13633
     13628     13631     13634     13629     13628     13630     13629     13628     13631
     13630     13628     13631     13631     13634     13635     13631     13634     13636
     13631     13634     13637     13632     13631     13633     13632     13631     13634
     13633     13631     13634     13634     13637     13638     13634     13637     13639
     13634     13637     13640     13635     13634     13636     13635     13634     13637
     13636     13634     13637     13637     13640     13641     13637     13640     13642
     13637     13640     13643     13638     13637     13639     13638     13637     13640
     13639     13637     13640     13640     13643     13644     13640     13643     13645
     13640     13643     13646     13641     13640     13642     13641     13640     13643
     13642     13640     13643     13643     13646     13647     13643     13646     13648
     13643     13646     13649     13644     13643     13645     13644     13643     13646
     13645     13643     13646     13646     13649     13650     13646     13649     13651
     13646     13649     13652     13647     13646     13648     13647     13646     13649
     13648     13646     13649     13649     13652     13653     13649     13652     13654
     13649     13652     13655     13650     13649     13651     13650     13649     13652
     13651     13649     13652     13653     13652     13654     13653     13652     13655
     13654     13652     13655     13656     13657     13658     13656     13657     13659
     13656     13657     13672     13656     13660     13661     13656     13660     13662
     13656     13660     13663     13656     13664     13665     13656     13664     13666
     13656     13664     13667     13656     13668     13669     13656     13668     13670
     13656     13668     13671     13657     13656     13660     13657     13656     13664
     13657     13656     13668     13657     13672     13673     13657     13672     13674
     13657     13672     13678     13658     13657     13659     13658     13657     13672
     13659     13657     13672     13660     13656     13664     13660     13656     13668
     13661     13660     13662     13661     13660     13663     13662     13660     13663
     13664     13656     13668     13665     13664     13666     13665     13664     13667
     13666     13664     13667     13669     13668     13670     13669     13668     13671
     13670     13668     13671     13672     13678     13675     13673     13672     13674
     13673     13672     13678     13674     13672     13678     13675     13679     13680
     13676     13675     13677     13676     13675     13678     13676     13675     13679
     13677     13675     13678     13677     13675     13679     13678     13675     13679
     13679     13680     13681     13679     13680     13682     13679     13680     13683
     13680     13683     13684     13680     13683     13685     13680     13683     13691
     13681     13680     13682     13681     13680     13683     13682     13680     13683
     13683     13685     13686     13683     13691     13692     13683     13691     13693
     13683     13691     13694     13684     13683     13685     13684     13683     13691
     13685     13683     13691     13685     13686     13687     13685     13686     13688
     13686     13688     13689     13686     13688     13690     13686     13688     13700
     13687     13686     13688     13688     13700     13701     13688     13700     13702
     13688     13700     13703     13689     13688     13690     13689     13688     13700
     13690     13688     13700     13691     13694     13695     13692     13691     13693
     13692     13691     13694     13693     13691     13694     13694     13695     13696
     13694     13695     13697     13695     13697     13698     13695     13697     13699
     13695     13697     13747     13696     13695     13697     13697     13747     13748
     13697     13747     13749     13697     13747     13750     13698     13697     13699
     13698     13697     13747     13699     13697     13747     13700     13703     13704
     13700     13703     13705     13700     13703     13706     13701     13700     13702
     13701     13700     13703     13702     13700     13703     13703     13706     13707
     13703     13706     13708     13703     13706     13709     13704     13703     13705
     13704     13703     13706     13705     13703     13706     13706     13709     13710
     13706     13709     13711     13706     13709     13712     13707     13706     13708
     13707     13706     13709     13708     13706     13709     13709     13712     13713
     13709     13712     13714     13709     13712     13715     13710     13709     13711
     13710     13709     13712     13711     13709     13712     13712     13715     13716
     13712     13715     13717     13712     13715     13718     13713     13712     13714
     13713     13712     13715     13714     13712     13715     13715     13718     13719
     13715     13718     13720     13716     13715     13717     13716     13715     13718
     13717     13715     13718     13718     13720     13721     13718     13720     13722
     13719     13718     13720     13720     13722     13723     13720     13722     13724
     13720     13722     13725     13721     13720     13722     13722     13725     13726
     13722     13725     13727     13722     13725     13728     13723     13722     13724
     13723     13722     13725     13724     13722     13725     13725     13728     13729
     13725     13728     13730     13725     13728     13731     13726     13725     13727
     13726     13725     13728     13727     13725     13728     13728     13731     13732
     13728     13731     13733     13728     13731     13734     13729     13728     13730
     13729     13728     13731     13730     13728     13731     13731     13734     13735
     13731     13734     13736     13731     13734     13737     13732     13731     13733
     13732     13731     13734     13733     13731     13734     13734     13737     13738
     13734     13737     13739     13734     13737     13740     13735     13734     13736
     13735     13734     13737     13736     13734     13737     13737     13740     13741
     13737     13740     13742     13737     13740     13743     13738     13737     13739
     13738     13737     13740     13739     13737     13740     13740     13743     13744
     13740     13743     13745     13740     13743     13746     13741     13740     13742
     13741     13740     13743     13742     13740     13743     13744     13743     13745
     13744     13743     13746     13745     13743     13746     13747     13750     13751
     13747     13750     13752     13747     13750     13753     13748     13747     13749
     13748     13747     13750     13749     13747     13750     13750     13753     13754
     13750     13753     13755     13750     13753     13756     13751     13750     13752
     13751     13750     13753     13752     13750     13753     13753     13756     13757
     13753     13756     13758     13753     13756     13759     13754     13753     13755
     13754     13753     13756     13755     13753     13756     13756     13759     13760
     13756     13759     13761     13756     13759     13762     13757     13756     13758
     13757     13756     13759     13758     13756     13759     13759     13762     13763
     13759     13762     13764     13759     13762     13765     13760     13759     13761
     13760     13759     13762     13761     13759     13762     13762     13765     13766
     13762     13765     13767     13762     13765     13768     13763     13762     13764
     13763     13762     13765     13764     13762     13765     13765     13768     13769
     13765     13768     13770     13765     13768     13771     13766     13765     13767
     13766     13765     13768     13767     13765     13768     13768     13771     13772
     13768     13771     13773     13768     13771     13774     13769     13768     13770
     13769     13768     13771     13770     13768     13771     13771     13774     13775
     13771     13774     13776     13771     13774     13777     13772     13771     13773
     13772     13771     13774     13773     13771     13774     13774     13777     13778
     13774     13777     13779     13774     13777     13780     13775     13774     13776
     13775     13774     13777     13776     13774     13777     13777     13780     13781
     13777     13780     13782     13777     13780     13783     13778     13777     13779
     13778     13777     13780     13779     13777     13780     13780     13783     13784
     13780     13783     13785     13780     13783     13786     13781     13780     13782
     13781     13780     13783     13782     13780     13783     13783     13786     13787
     13783     13786     13788     13783     13786     13789     13784     13783     13785
     13784     13783     13786     13785     13783     13786     13787     13786     13788
     13787     13786     13789     13788     13786     13789     13790     13794     13795
     13790     13794     13796     13790     13794     13799     13791     13790     13792
     13791     13790     13793     13791     13790     13794     13792     13790     13793
     13792     13790     13794     13793     13790     13794     13794     13796     13797
     13794     13796     13798     13794     13799     13800     13794     13799     13801
     13794     13799     13805     13795     13794     13796     13795     13794     13799
     13796     13794     13799     13797     13796     13798     13799     13805     13802
     13800     13799     13801     13800     13799     13805     13801     13799     13805
     13802     13806     13807     13803     13802     13804     13803     13802     13805
     13803     13802     13806     13804     13802     13805     13804     13802     13806
     13805     13802     13806     13806     13807     13808     13806     13807     13809
     13806     13807     13810     13807     13810     13811     13807     13810     13812
     13807     13810     13818     13808     13807     13809     13808     13807     13810
     13809     13807     13810     13810     13812     13813     13810     13818     13819
     13810     13818     13820     13810     13818     13821     13811     13810     13812
     13811     13810     13818     13812     13810     13818     13812     13813     13814
     13812     13813     13815     13813     13815     13816     13813     13815     13817
     13813     13815     13827     13814     13813     13815     13815     13827     13828
     13815     13827     13829     13815     13827     13830     13816     13815     13817
     13816     13815     13827     13817     13815     13827     13818     13821     13822
     13819     13818     13820     13819     13818     13821     13820     13818     13821
     13821     13822     13823     13821     13822     13824     13822     13824     13825
     13822     13824     13826     13822     13824     13874     13823     13822     13824
     13824     13874     13875     13824     13874     13876     13824     13874     13877
     13825     13824     13826     13825     13824     13874     13826     13824     13874
     13827     13830     13831     13827     13830     13832     13827     13830     13833
     13828     13827     13829     13828     13827     13830     13829     13827     13830
     13830     13833     13834     13830     13833     13835     13830     13833     13836
     13831     13830     13832     13831     13830     13833     13832     13830     13833
     13833     13836     13837     13833     13836     13838     13833     13836     13839
     13834     13833     13835     13834     13833     13836     13835     13833     13836
     13836     13839     13840     13836     13839     13841     13836     13839     13842
     13837     13836     13838     13837     13836     13839     13838     13836     13839
     13839     13842     13843     13839     13842     13844     13839     13842     13845
     13840     13839     13841     13840     13839     13842     13841     13839     13842
     13842     13845     13846     13842     13845     13847     13843     13842     13844
     13843     13842     13845     13844     13842     13845     13845     13847     13848
     13845     13847     13849     13846     13845     13847     13847     13849     13850
     13847     13849     13851     13847     13849     13852     13848     13847     13849
     13849     13852     13853     13849     13852     13854     13849     13852     13855
     13850     13849     13851     13850     13849     13852     13851     13849     13852
     13852     13855     13856     13852     13855     13857     13852     13855     13858
     13853     13852     13854     13853     13852     13855     13854     13852     13855
     13855     13858     13859     13855     13858     13860     13855     13858     13861
     13856     13855     13857     13856     13855     13858     13857     13855     13858
     13858     13861     13862     13858     13861     13863     13858     13861     13864
     13859     13858     13860     13859     13858     13861     13860     13858     13861
     13861     13864     13865     13861     13864     13866     13861     13864     13867
     13862     13861     13863     13862     13861     13864     13863     13861     13864
     13864     13867     13868     13864     13867     13869     13864     13867     13870
     13865     13864     13866     13865     13864     13867     13866     13864     13867
     13867     13870     13871     13867     13870     13872     13867     13870     13873
     13868     13867     13869     13868     13867     13870     13869     13867     13870
     13871     13870     13872     13871     13870     13873     13872     13870     13873
     13874     13877     13878     13874     13877     13879     13874     13877     13880
     13875     13874     13876     13875     13874     13877     13876     13874     13877
     13877     13880     13881     13877     13880     13882     13877     13880     13883
     13878     13877     13879     13878     13877     13880     13879     13877     13880
     13880     13883     13884     13880     13883     13885     13880     13883     13886
     13881     13880     13882     13881     13880     13883     13882     13880     13883
     13883     13886     13887     13883     13886     13888     13883     13886     13889
     13884     13883     13885     13884     13883     13886     13885     13883     13886
     13886     13889     13890     13886     13889     13891     13886     13889     13892
     13887     13886     13888     13887     13886     13889     13888     13886     13889
     13889     13892     13893     13889     13892     13894     13889     13892     13895
     13890     13889     13891     13890     13889     13892     13891     13889     13892
     13892     13895     13896     13892     13895     13897     13892     13895     13898
     13893     13892     13894     13893     13892     13895     13894     13892     13895
     13895     13898     13899     13895     13898     13900     13895     13898     13901
     13896     13895     13897     13896     13895     13898     13897     13895     13898
     13898     13901     13902     13898     13901     13903     13898     13901     13904
     13899     13898     13900     13899     13898     13901     13900     13898     13901
     13901     13904     13905     13901     13904     13906     13901     13904     13907
     13902     13901     13903     13902     13901     13904     13903     13901     13904
     13904     13907     13908     13904     13907     13909     13904     13907     13910
     13905     13904     13906     13905     13904     13907     13906     13904     13907
     13907     13910     13911     13907     13910     13912     13907     13910     13913
     13908     13907     13909     13908     13907     13910     13909     13907     13910
     13910     13913     13914     13910     13913     13915     13910     13913     13916
     13911     13910     13912     13911     13910     13913     13912     13910     13913
     13914     13913     13915     13914     13913     13916     13915     13913     13916
     13917     13918     13919     13917     13918     13920     13917     13918     13933
     13917     13921     13922     13917     13921     13923     13917     13921     13924
     13917     13925     13926     13917     13925     13927     13917     13925     13928
     13917     13929     13930     13917     13929     13931     13917     13929     13932
     13918     13917     13921     13918     13917     13925     13918     13917     13929
     13918     13933     13934     13918     13933     13935     13918     13933     13939
     13919     13918     13920     13919     13918     13933     13920     13918     13933
     13921     13917     13925     13921     13917     13929     13922     13921     13923
     13922     13921     13924     13923     13921     13924     13925     13917     13929
     13926     13925     13927     13926     13925     13928     13927     13925     13928
     13930     13929     13931     13930     13929     13932     13931     13929     13932
     13933     13939     13936     13934     13933     13935     13934     13933     13939
     13935     13933     13939     13936     13940     13941     13937     13936     13938
     13937     13936     13939     13937     13936     13940     13938     13936     13939
     13938     13936     13940     13939     13936     13940     13940     13941     13942
     13940     13941     13943     13940     13941     13944     13941     13944     13945
     13941     13944     13946     13941     13944     13952     13942     13941     13943
     13942     13941     13944     13943     13941     13944     13944     13946     13947
     13944     13952     13953     13944     13952     13954     13944     13952     13955
     13945     13944     13946     13945     13944     13952     13946     13944     13952
     13946     13947     13948     13946     13947     13949     13947     13949     13950
     13947     13949     13951     13947     13949     13961     13948     13947     13949
     13949     13961     13962     13949     13961     13963     13949     13961     13964
     13950     13949     13951     13950     13949     13961     13951     13949     13961
     13952     13955     13956     13953     13952     13954     13953     13952     13955
     13954     13952     13955     13955     13956     13957     13955     13956     13958
     13956     13958     13959     13956     13958     13960     13956     13958     14008
     13957     13956     13958     13958     14008     14009     13958     14008     14010
     13958     14008     14011     13959     13958     13960     13959     13958     14008
     13960     13958     14008     13961     13964     13965     13961     13964     13966
     13961     13964     13967     13962     13961     13963     13962     13961     13964
     13963     13961     13964     13964     13967     13968     13964     13967     13969
     13964     13967     13970     13965     13964     13966     13965     13964     13967
     13966     13964     13967     13967     13970     13971     13967     13970     13972
     13967     13970     13973     13968     13967     13969     13968     13967     13970
     13969     13967     13970     13970     13973     13974     13970     13973     13975
     13970     13973     13976     13971     13970     13972     13971     13970     13973
     13972     13970     13973     13973     13976     13977     13973     13976     13978
     13973     13976     13979     13974     13973     13975     13974     13973     13976
     13975     13973     13976     13976     13979     13980     13976     13979     13981
     13977     13976     13978     13977     13976     13979     13978     13976     13979
     13979     13981     13982     13979     13981     13983     13980     13979     13981
     13981     13983     13984     13981     13983     13985     13981     13983     13986
     13982     13981     13983     13983     13986     13987     13983     13986     13988
     13983     13986     13989     13984     13983     13985     13984     13983     13986
     13985     13983     13986     13986     13989     13990     13986     13989     13991
     13986     13989     13992     13987     13986     13988     13987     13986     13989
     13988     13986     13989     13989     13992     13993     13989     13992     13994
     13989     13992     13995     13990     13989     13991     13990     13989     13992
     13991     13989     13992     13992     13995     13996     13992     13995     13997
     13992     13995     13998     13993     13992     13994     13993     13992     13995
     13994     13992     13995     13995     13998     13999     13995     13998     14000
     13995     13998     14001     13996     13995     13997     13996     13995     13998
     13997     13995     13998     13998     14001     14002     13998     14001     14003
     13998     14001     14004     13999     13998     14000     13999     13998     14001
     14000     13998     14001     14001     14004     14005     14001     14004     14006
     14001     14004     14007     14002     14001     14003     14002     14001     14004
     14003     14001     14004     14005     14004     14006     14005     14004     14007
     14006     14004     14007     14008     14011     14012     14008     14011     14013
     14008     14011     14014     14009     14008     14010     14009     14008     14011
     14010     14008     14011     14011     14014     14015     14011     14014     14016
     14011     14014     14017     14012     14011     14013     14012     14011     14014
     14013     14011     14014     14014     14017     14018     14014     14017     14019
     14014     14017     14020     14015     14014     14016     14015     14014     14017
     14016     14014     14017     14017     14020     14021     14017     14020     14022
     14017     14020     14023     14018     14017     14019     14018     14017     14020
     14019     14017     14020     14020     14023     14024     14020     14023     14025
     14020     14023     14026     14021     14020     14022     14021     14020     14023
     14022     14020     14023     14023     14026     14027     14023     14026     14028
     14023     14026     14029     14024     14023     14025     14024     14023     14026
     14025     14023     14026     14026     14029     14030     14026     14029     14031
     14026     14029     14032     14027     14026     14028     14027     14026     14029
     14028     14026     14029     14029     14032     14033     14029     14032     14034
     14029     14032     14035     14030     14029     14031     14030     14029     14032
     14031     14029     14032     14032     14035     14036     14032     14035     14037
     14032     14035     14038     14033     14032     14034     14033     14032     14035
     14034     14032     14035     14035     14038     14039     14035     14038     14040
     14035     14038     14041     14036     14035     14037     14036     14035     14038
     14037     14035     14038     14038     14041     14042     14038     14041     14043
     14038     14041     14044     14039     14038     14040     14039     14038     14041
     14040     14038     14041     14041     14044     14045     14041     14044     14046
     14041     14044     14047     14042     14041     14043     14042     14041     14044
     14043     14041     14044     14044     14047     14048     14044     14047     14049
     14044     14047     14050     14045     14044     14046     14045     14044     14047
     14046     14044     14047     14048     14047     14049     14048     14047     14050
     14049     14047     14050     14051     14052     14053     14051     14052     14054
     14051     14052     14067     14051     14055     14056     14051     14055     14057
     14051     14055     14058     14051     14059     14060     14051     14059     14061
     14051     14059     14062     14051     14063     14064     14051     14063     14065
     14051     14063     14066     14052     14051     14055     14052     14051     14059
     14052     14051     14063     14052     14067     14068     14052     14067     14069
     14052     14067     14073     14053     14052     14054     14053     14052     14067
     14054     14052     14067     14055     14051     14059     14055     14051     14063
     14056     14055     14057     14056     14055     14058     14057     14055     14058
     14059     14051     14063     14060     14059     14061     14060     14059     14062
     14061     14059     14062     14064     14063     14065     14064     14063     14066
     14065     14063     14066     14067     14073     14070     14068     14067     14069
     14068     14067     14073     14069     14067     14073     14070     14074     14075
     14071     14070     14072     14071     14070     14073     14071     14070     14074
     14072     14070     14073     14072     14070     14074     14073     14070     14074
     14074     14075     14076     14074     14075     14077     14074     14075     14078
     14075     14078     14079     14075     14078     14080     14075     14078     14086
     14076     14075     14077     14076     14075     14078     14077     14075     14078
     14078     14080     14081     14078     14086     14087     14078     14086     14088
     14078     14086     14089     14079     14078     14080     14079     14078     14086
     14080     14078     14086     14080     14081     14082     14080     14081     14083
     14081     14083     14084     14081     14083     14085     14081     14083     14095
     14082     14081     14083     14083     14095     14096     14083     14095     14097
     14083     14095     14098     14084     14083     14085     14084     14083     14095
     14085     14083     14095     14086     14089     14090     14087     14086     14088
     14087     14086     14089     14088     14086     14089     14089     14090     14091
     14089     14090     14092     14090     14092     14093     14090     14092     14094
     14090     14092     14142     14091     14090     14092     14092     14142     14143
     14092     14142     14144     14092     14142     14145     14093     14092     14094
     14093     14092     14142     14094     14092     14142     14095     14098     14099
     14095     14098     14100     14095     14098     14101     14096     14095     14097
     14096     14095     14098     14097     14095     14098     14098     14101     14102
     14098     14101     14103     14098     14101     14104     14099     14098     14100
     14099     14098     14101     14100     14098     14101     14101     14104     14105
     14101     14104     14106     14101     14104     14107     14102     14101     14103
     14102     14101     14104     14103     14101     14104     14104     14107     14108
     14104     14107     14109     14104     14107     14110     14105     14104     14106
     14105     14104     14107     14106     14104     14107     14107     14110     14111
     14107     14110     14112     14107     14110     14113     14108     14107     14109
     14108     14107     14110     14109     14107     14110     14110     14113     14114
     14110     14113     14115     14111     14110     14112     14111     14110     14113
     14112     14110     14113     14113     14115     14116     14113     14115     14117
     14114     14113     14115     14115     14117     14118     14115     14117     14119
     14115     14117     14120     14116     14115     14117     14117     14120     14121
     14117     14120     14122     14117     14120     14123     14118     14117     14119
     14118     14117     14120     14119     14117     14120     14120     14123     14124
     14120     14123     14125     14120     14123     14126     14121     14120     14122
     14121     14120     14123     14122     14120     14123     14123     14126     14127
     14123     14126     14128     14123     14126     14129     14124     14123     14125
     14124     14123     14126     14125     14123     14126     14126     14129     14130
     14126     14129     14131     14126     14129     14132     14127     14126     14128
     14127     14126     14129     14128     14126     14129     14129     14132     14133
     14129     14132     14134     14129     14132     14135     14130     14129     14131
     14130     14129     14132     14131     14129     14132     14132     14135     14136
     14132     14135     14137     14132     14135     14138     14133     14132     14134
     14133     14132     14135     14134     14132     14135     14135     14138     14139
     14135     14138     14140     14135     14138     14141     14136     14135     14137
     14136     14135     14138     14137     14135     14138     14139     14138     14140
     14139     14138     14141     14140     14138     14141     14142     14145     14146
     14142     14145     14147     14142     14145     14148     14143     14142     14144
     14143     14142     14145     14144     14142     14145     14145     14148     14149
     14145     14148     14150     14145     14148     14151     14146     14145     14147
     14146     14145     14148     14147     14145     14148     14148     14151     14152
     14148     14151     14153     14148     14151     14154     14149     14148     14150
     14149     14148     14151     14150     14148     14151     14151     14154     14155
     14151     14154     14156     14151     14154     14157     14152     14151     14153
     14152     14151     14154     14153     14151     14154     14154     14157     14158
     14154     14157     14159     14154     14157     14160     14155     14154     14156
     14155     14154     14157     14156     14154     14157     14157     14160     14161
     14157     14160     14162     14157     14160     14163     14158     14157     14159
     14158     14157     14160     14159     14157     14160     14160     14163     14164
     14160     14163     14165     14160     14163     14166     14161     14160     14162
     14161     14160     14163     14162     14160     14163     14163     14166     14167
     14163     14166     14168     14163     14166     14169     14164     14163     14165
     14164     14163     14166     14165     14163     14166     14166     14169     14170
     14166     14169     14171     14166     14169     14172     14167     14166     14168
     14167     14166     14169     14168     14166     14169     14169     14172     14173
     14169     14172     14174     14169     14172     14175     14170     14169     14171
     14170     14169     14172     14171     14169     14172     14172     14175     14176
     14172     14175     14177     14172     14175     14178     14173     14172     14174
     14173     14172     14175     14174     14172     14175     14175     14178     14179
     14175     14178     14180     14175     14178     14181     14176     14175     14177
     14176     14175     14178     14177     14175     14178     14178     14181     14182
     14178     14181     14183     14178     14181     14184     14179     14178     14180
     14179     14178     14181     14180     14178     14181     14182     14181     14183
     14182     14181     14184     14183     14181     14184     14185     14189     14190
     14185     14189     14191     14185     14189     14194     14186     14185     14187
     14186     14185     14188     14186     14185     14189     14187     14185     14188
     14187     14185     14189     14188     14185     14189     14189     14191     14192
     14189     14191     14193     14189     14194     14195     14189     14194     14196
     14189     14194     14200     14190     14189     14191     14190     14189     14194
     14191     14189     14194     14192     14191     14193     14194     14200     14197
     14195     14194     14196     14195     14194     14200     14196     14194     14200
     14197     14201     14202     14198     14197     14199     14198     14197     14200
     14198     14197     14201     14199     14197     14200     14199     14197     14201
     14200     14197     14201     14201     14202     14203     14201     14202     14204
     14201     14202     14205     14202     14205     14206     14202     14205     14207
     14202     14205     14213     14203     14202     14204     14203     14202     14205
     14204     14202     14205     14205     14207     14208     14205     14213     14214
     14205     14213     14215     14205     14213     14216     14206     14205     14207
     14206     14205     14213     14207     14205     14213     14207     14208     14209
     14207     14208     14210     14208     14210     14211     14208     14210     14212
     14208     14210     14222     14209     14208     14210     14210     14222     14223
     14210     14222     14224     14210     14222     14225     14211     14210     14212
     14211     14210     14222     14212     14210     14222     14213     14216     14217
     14214     14213     14215     14214     14213     14216     14215     14213     14216
     14216     14217     14218     14216     14217     14219     14217     14219     14220
     14217     14219     14221     14217     14219     14269     14218     14217     14219
     14219     14269     14270     14219     14269     14271     14219     14269     14272
     14220     14219     14221     14220     14219     14269     14221     14219     14269
     14222     14225     14226     14222     14225     14227     14222     14225     14228
     14223     14222     14224     14223     14222     14225     14224     14222     14225
     14225     14228     14229     14225     14228     14230     14225     14228     14231
     14226     14225     14227     14226     14225     14228     14227     14225     14228
     14228     14231     14232     14228     14231     14233     14228     14231     14234
     14229     14228     14230     14229     14228     14231     14230     14228     14231
     14231     14234     14235     14231     14234     14236     14231     14234     14237
     14232     14231     14233     14232     14231     14234     14233     14231     14234
     14234     14237     14238     14234     14237     14239     14234     14237     14240
     14235     14234     14236     14235     14234     14237     14236     14234     14237
     14237     14240     14241     14237     14240     14242     14238     14237     14239
     14238     14237     14240     14239     14237     14240     14240     14242     14243
     14240     14242     14244     14241     14240     14242     14242     14244     14245
     14242     14244     14246     14242     14244     14247     14243     14242     14244
     14244     14247     14248     14244     14247     14249     14244     14247     14250
     14245     14244     14246     14245     14244     14247     14246     14244     14247
     14247     14250     14251     14247     14250     14252     14247     14250     14253
     14248     14247     14249     14248     14247     14250     14249     14247     14250
     14250     14253     14254     14250     14253     14255     14250     14253     14256
     14251     14250     14252     14251     14250     14253     14252     14250     14253
     14253     14256     14257     14253     14256     14258     14253     14256     14259
     14254     14253     14255     14254     14253     14256     14255     14253     14256
     14256     14259     14260     14256     14259     14261     14256     14259     14262
     14257     14256     14258     14257     14256     14259     14258     14256     14259
     14259     14262     14263     14259     14262     14264     14259     14262     14265
     14260     14259     14261     14260     14259     14262     14261     14259     14262
     14262     14265     14266     14262     14265     14267     14262     14265     14268
     14263     14262     14264     14263     14262     14265     14264     14262     14265
     14266     14265     14267     14266     14265     14268     14267     14265     14268
     14269     14272     14273     14269     14272     14274     14269     14272     14275
     14270     14269     14271     14270     14269     14272     14271     14269     14272
     14272     14275     14276     14272     14275     14277     14272     14275     14278
     14273     14272     14274     14273     14272     14275     14274     14272     14275
     14275     14278     14279     14275     14278     14280     14275     14278     14281
     14276     14275     14277     14276     14275     14278     14277     14275     14278
     14278     14281     14282     14278     14281     14283     14278     14281     14284
     14279     14278     14280     14279     14278     14281     14280     14278     14281
     14281     14284     14285     14281     14284     14286     14281     14284     14287
     14282     14281     14283     14282     14281     14284     14283     14281     14284
     14284     14287     14288     14284     14287     14289     14284     14287     14290
     14285     14284     14286     14285     14284     14287     14286     14284     14287
     14287     14290     14291     14287     14290     14292     14287     14290     14293
     14288     14287     14289     14288     14287     14290     14289     14287     14290
     14290     14293     14294     14290     14293     14295     14290     14293     14296
     14291     14290     14292     14291     14290     14293     14292     14290     14293
     14293     14296     14297     14293     14296     14298     14293     14296     14299
     14294     14293     14295     14294     14293     14296     14295     14293     14296
     14296     14299     14300     14296     14299     14301     14296     14299     14302
     14297     14296     14298     14297     14296     14299     14298     14296     14299
     14299     14302     14303     14299     14302     14304     14299     14302     14305
     14300     14299     14301     14300     14299     14302     14301     14299     14302
     14302     14305     14306     14302     14305     14307     14302     14305     14308
     14303     14302     14304     14303     14302     14305     14304     14302     14305
     14305     14308     14309     14305     14308     14310     14305     14308     14311
     14306     14305     14307     14306     14305     14308     14307     14305     14308
     14309     14308     14310     14309     14308     14311     14310     14308     14311
     14312     14313     14314     14312     14313     14315     14312     14313     14328
     14312     14316     14317     14312     14316     14318     14312     14316     14319
     14312     14320     14321     14312     14320     14322     14312     14320     14323
     14312     14324     14325     14312     14324     14326     14312     14324     14327
     14313     14312     14316     14313     14312     14320     14313     14312     14324
     14313     14328     14329     14313     14328     14330     14313     14328     14334
     14314     14313     14315     14314     14313     14328     14315     14313     14328
     14316     14312     14320     14316     14312     14324     14317     14316     14318
     14317     14316     14319     14318     14316     14319     14320     14312     14324
     14321     14320     14322     14321     14320     14323     14322     14320     14323
     14325     14324     14326     14325     14324     14327     14326     14324     14327
     14328     14334     14331     14329     14328     14330     14329     14328     14334
     14330     14328     14334     14331     14335     14336     14332     14331     14333
     14332     14331     14334     14332     14331     14335     14333     14331     14334
     14333     14331     14335     14334     14331     14335     14335     14336     14337
     14335     14336     14338     14335     14336     14339     14336     14339     14340
     14336     14339     14341     14336     14339     14347     14337     14336     14338
     14337     14336     14339     14338     14336     14339     14339     14341     14342
     14339     14347     14348     14339     14347     14349     14339     14347     14350
     14340     14339     14341     14340     14339     14347     14341     14339     14347
     14341     14342     14343     14341     14342     14344     14342     14344     14345
     14342     14344     14346     14342     14344     14356     14343     14342     14344
     14344     14356     14357     14344     14356     14358     14344     14356     14359
     14345     14344     14346     14345     14344     14356     14346     14344     14356
     14347     14350     14351     14348     14347     14349     14348     14347     14350
     14349     14347     14350     14350     14351     14352     14350     14351     14353
     14351     14353     14354     14351     14353     14355     14351     14353     14403
     14352     14351     14353     14353     14403     14404     14353     14403     14405
     14353     14403     14406     14354     14353     14355     14354     14353     14403
     14355     14353     14403     14356     14359     14360     14356     14359     14361
     14356     14359     14362     14357     14356     14358     14357     14356     14359
     14358     14356     14359     14359     14362     14363     14359     14362     14364
     14359     14362     14365     14360     14359     14361     14360     14359     14362
     14361     14359     14362     14362     14365     14366     14362     14365     14367
     14362     14365     14368     14363     14362     14364     14363     14362     14365
     14364     14362     14365     14365     14368     14369     14365     14368     14370
     14365     14368     14371     14366     14365     14367     14366     14365     14368
     14367     14365     14368     14368     14371     14372     14368     14371     14373
     14368     14371     14374     14369     14368     14370     14369     14368     14371
     14370     14368     14371     14371     14374     14375     14371     14374     14376
     14372     14371     14373     14372     14371     14374     14373     14371     14374
     14374     14376     14377     14374     14376     14378     14375     14374     14376
     14376     14378     14379     14376     14378     14380     14376     14378     14381
     14377     14376     14378     14378     14381     14382     14378     14381     14383
     14378     14381     14384     14379     14378     14380     14379     14378     14381
     14380     14378     14381     14381     14384     14385     14381     14384     14386
     14381     14384     14387     14382     14381     14383     14382     14381     14384
     14383     14381     14384     14384     14387     14388     14384     14387     14389
     14384     14387     14390     14385     14384     14386     14385     14384     14387
     14386     14384     14387     14387     14390     14391     14387     14390     14392
     14387     14390     14393     14388     14387     14389     14388     14387     14390
     14389     14387     14390     14390     14393     14394     14390     14393     14395
     14390     14393     14396     14391     14390     14392     14391     14390     14393
     14392     14390     14393     14393     14396     14397     14393     14396     14398
     14393     14396     14399     14394     14393     14395     14394     14393     14396
     14395     14393     14396     14396     14399     14400     14396     14399     14401
     14396     14399     14402     14397     14396     14398     14397     14396     14399
     14398     14396     14399     14400     14399     14401     14400     14399     14402
     14401     14399     14402     14403     14406     14407     14403     14406     14408
     14403     14406     14409     14404     14403     14405     14404     14403     14406
     14405     14403     14406     14406     14409     14410     14406     14409     14411
     14406     14409     14412     14407     14406     14408     14407     14406     14409
     14408     14406     14409     14409     14412     14413     14409     14412     14414
     14409     14412     14415     14410     14409     14411     14410     14409     14412
     14411     14409     14412     14412     14415     14416     14412     14415     14417
     14412     14415     14418     14413     14412     14414     14413     14412     14415
     14414     14412     14415     14415     14418     14419     14415     14418     14420
     14415     14418     14421     14416     14415     14417     14416     14415     14418
     14417     14415     14418     14418     14421     14422     14418     14421     14423
     14418     14421     14424     14419     14418     14420     14419     14418     14421
     14420     14418     14421     14421     14424     14425     14421     14424     14426
     14421     14424     14427     14422     14421     14423     14422     14421     14424
     14423     14421     14424     14424     14427     14428     14424     14427     14429
     14424     14427     14430     14425     14424     14426     14425     14424     14427
     14426     14424     14427     14427     14430     14431     14427     14430     14432
     14427     14430     14433     14428     14427     14429     14428     14427     14430
     14429     14427     14430     14430     14433     14434     14430     14433     14435
     14430     14433     14436     14431     14430     14432     14431     14430     14433
     14432     14430     14433     14433     14436     14437     14433     14436     14438
     14433     14436     14439     14434     14433     14435     14434     14433     14436
     14435     14433     14436     14436     14439     14440     14436     14439     14441
     14436     14439     14442     14437     14436     14438     14437     14436     14439
     14438     14436     14439     14439     14442     14443     14439     14442     14444
     14439     14442     14445     14440     14439     14441     14440     14439     14442
     14441     14439     14442     14443     14442     14444     14443     14442     14445
     14444     14442     14445     14446     14447     14448     14446     14447     14449
     14446     14447     14462     14446     14450     14451     14446     14450     14452
     14446     14450     14453     14446     14454     14455     14446     14454     14456
     14446     14454     14457     14446     14458     14459     14446     14458     14460
     14446     14458     14461     14447     14446     14450     14447     14446     14454
     14447     14446     14458     14447     14462     14463     14447     14462     14464
     14447     14462     14468     14448     14447     14449     14448     14447     14462
     14449     14447     14462     14450     14446     14454     14450     14446     14458
     14451     14450     14452     14451     14450     14453     14452     14450     14453
     14454     14446     14458     14455     14454     14456     14455     14454     14457
     14456     14454     14457     14459     14458     14460     14459     14458     14461
     14460     14458     14461     14462     14468     14465     14463     14462     14464
     14463     14462     14468     14464     14462     14468     14465     14469     14470
     14466     14465     14467     14466     14465     14468     14466     14465     14469
     14467     14465     14468     14467     14465     14469     14468     14465     14469
     14469     14470     14471     14469     14470     14472     14469     14470     14473
     14470     14473     14474     14470     14473     14475     14470     14473     14481
     14471     14470     14472     14471     14470     14473     14472     14470     14473
     14473     14475     14476     14473     14481     14482     14473     14481     14483
     14473     14481     14484     14474     14473     14475     14474     14473     14481
     14475     14473     14481     14475     14476     14477     14475     14476     14478
     14476     14478     14479     14476     14478     14480     14476     14478     14490
     14477     14476     14478     14478     14490     14491     14478     14490     14492
     14478     14490     14493     14479     14478     14480     14479     14478     14490
     14480     14478     14490     14481     14484     14485     14482     14481     14483
     14482     14481     14484     14483     14481     14484     14484     14485     14486
     14484     14485     14487     14485     14487     14488     14485     14487     14489
     14485     14487     14537     14486     14485     14487     14487     14537     14538
     14487     14537     14539     14487     14537     14540     14488     14487     14489
     14488     14487     14537     14489     14487     14537     14490     14493     14494
     14490     14493     14495     14490     14493     14496     14491     14490     14492
     14491     14490     14493     14492     14490     14493     14493     14496     14497
     14493     14496     14498     14493     14496     14499     14494     14493     14495
     14494     14493     14496     14495     14493     14496     14496     14499     14500
     14496     14499     14501     14496     14499     14502     14497     14496     14498
     14497     14496     14499     14498     14496     14499     14499     14502     14503
     14499     14502     14504     14499     14502     14505     14500     14499     14501
     14500     14499     14502     14501     14499     14502     14502     14505     14506
     14502     14505     14507     14502     14505     14508     14503     14502     14504
     14503     14502     14505     14504     14502     14505     14505     14508     14509
     14505     14508     14510     14506     14505     14507     14506     14505     14508
     14507     14505     14508     14508     14510     14511     14508     14510     14512
     14509     14508     14510     14510     14512     14513     14510     14512     14514
     14510     14512     14515     14511     14510     14512     14512     14515     14516
     14512     14515     14517     14512     14515     14518     14513     14512     14514
     14513     14512     14515     14514     14512     14515     14515     14518     14519
     14515     14518     14520     14515     14518     14521     14516     14515     14517
     14516     14515     14518     14517     14515     14518     14518     14521     14522
     14518     14521     14523     14518     14521     14524     14519     14518     14520
     14519     14518     14521     14520     14518     14521     14521     14524     14525
     14521     14524     14526     14521     14524     14527     14522     14521     14523
     14522     14521     14524     14523     14521     14524     14524     14527     14528
     14524     14527     14529     14524     14527     14530     14525     14524     14526
     14525     14524     14527     14526     14524     14527     14527     14530     14531
     14527     14530     14532     14527     14530     14533     14528     14527     14529
     14528     14527     14530     14529     14527     14530     14530     14533     14534
     14530     14533     14535     14530     14533     14536     14531     14530     14532
     14531     14530     14533     14532     14530     14533     14534     14533     14535
     14534     14533     14536     14535     14533     14536     14537     14540     14541
     14537     14540     14542     14537     14540     14543     14538     14537     14539
     14538     14537     14540     14539     14537     14540     14540     14543     14544
     14540     14543     14545     14540     14543     14546     14541     14540     14542
     14541     14540     14543     14542     14540     14543     14543     14546     14547
     14543     14546     14548     14543     14546     14549     14544     14543     14545
     14544     14543     14546     14545     14543     14546     14546     14549     14550
     14546     14549     14551     14546     14549     14552     14547     14546     14548
     14547     14546     14549     14548     14546     14549     14549     14552     14553
     14549     14552     14554     14549     14552     14555     14550     14549     14551
     14550     14549     14552     14551     14549     14552     14552     14555     14556
     14552     14555     14557     14552     14555     14558     14553     14552     14554
     14553     14552     14555     14554     14552     14555     14555     14558     14559
     14555     14558     14560     14555     14558     14561     14556     14555     14557
     14556     14555     14558     14557     14555     14558     14558     14561     14562
     14558     14561     14563     14558     14561     14564     14559     14558     14560
     14559     14558     14561     14560     14558     14561     14561     14564     14565
     14561     14564     14566     14561     14564     14567     14562     14561     14563
     14562     14561     14564     14563     14561     14564     14564     14567     14568
     14564     14567     14569     14564     14567     14570     14565     14564     14566
     14565     14564     14567     14566     14564     14567     14567     14570     14571
     14567     14570     14572     14567     14570     14573     14568     14567     14569
     14568     14567     14570     14569     14567     14570     14570     14573     14574
     14570     14573     14575     14570     14573     14576     14571     14570     14572
     14571     14570     14573     14572     14570     14573     14573     14576     14577
     14573     14576     14578     14573     14576     14579     14574     14573     14575
     14574     14573     14576     14575     14573     14576     14577     14576     14578
     14577     14576     14579     14578     14576     14579     14580     14584     14585
     14580     14584     14586     14580     14584     14589     14581     14580     14582
     14581     14580     14583     14581     14580     14584     14582     14580     14583
     14582     14580     14584     14583     14580     14584     14584     14586     14587
     14584     14586     14588     14584     14589     14590     14584     14589     14591
     14584     14589     14595     14585     14584     14586     14585     14584     14589
     14586     14584     14589     14587     14586     14588     14589     14595     14592
     14590     14589     14591     14590     14589     14595     14591     14589     14595
     14592     14596     14597     14593     14592     14594     14593     14592     14595
     14593     14592     14596     14594     14592     14595     14594     14592     14596
     14595     14592     14596     14596     14597     14598     14596     14597     14599
     14596     14597     14600     14597     14600     14601     14597     14600     14602
     14597     14600     14608     14598     14597     14599     14598     14597     14600
     14599     14597     14600     14600     14602     14603     14600     14608     14609
     14600     14608     14610     14600     14608     14611     14601     14600     14602
     14601     14600     14608     14602     14600     14608     14602     14603     14604
     14602     14603     14605     14603     14605     14606     14603     14605     14607
     14603     14605     14617     14604     14603     14605     14605     14617     14618
     14605     14617     14619     14605     14617     14620     14606     14605     14607
     14606     14605     14617     14607     14605     14617     14608     14611     14612
     14609     14608     14610     14609     14608     14611     14610     14608     14611
     14611     14612     14613     14611     14612     14614     14612     14614     14615
     14612     14614     14616     14612     14614     14664     14613     14612     14614
     14614     14664     14665     14614     14664     14666     14614     14664     14667
     14615     14614     14616     14615     14614     14664     14616     14614     14664
     14617     14620     14621     14617     14620     14622     14617     14620     14623
     14618     14617     14619     14618     14617     14620     14619     14617     14620
     14620     14623     14624     14620     14623     14625     14620     14623     14626
     14621     14620     14622     14621     14620     14623     14622     14620     14623
     14623     14626     14627     14623     14626     14628     14623     14626     14629
     14624     14623     14625     14624     14623     14626     14625     14623     14626
     14626     14629     14630     14626     14629     14631     14626     14629     14632
     14627     14626     14628     14627     14626     14629     14628     14626     14629
     14629     14632     14633     14629     14632     14634     14629     14632     14635
     14630     14629     14631     14630     14629     14632     14631     14629     14632
     14632     14635     14636     14632     14635     14637     14633     14632     14634
     14633     14632     14635     14634     14632     14635     14635     14637     14638
     14635     14637     14639     14636     14635     14637     14637     14639     14640
     14637     14639     14641     14637     14639     14642     14638     14637     14639
     14639     14642     14643     14639     14642     14644     14639     14642     14645
     14640     14639     14641     14640     14639     14642     14641     14639     14642
     14642     14645     14646     14642     14645     14647     14642     14645     14648
     14643     14642     14644     14643     14642     14645     14644     14642     14645
     14645     14648     14649     14645     14648     14650     14645     14648     14651
     14646     14645     14647     14646     14645     14648     14647     14645     14648
     14648     14651     14652     14648     14651     14653     14648     14651     14654
     14649     14648     14650     14649     14648     14651     14650     14648     14651
     14651     14654     14655     14651     14654     14656     14651     14654     14657
     14652     14651     14653     14652     14651     14654     14653     14651     14654
     14654     14657     14658     14654     14657     14659     14654     14657     14660
     14655     14654     14656     14655     14654     14657     14656     14654     14657
     14657     14660     14661     14657     14660     14662     14657     14660     14663
     14658     14657     14659     14658     14657     14660     14659     14657     14660
     14661     14660     14662     14661     14660     14663     14662     14660     14663
     14664     14667     14668     14664     14667     14669     14664     14667     14670
     14665     14664     14666     14665     14664     14667     14666     14664     14667
     14667     14670     14671     14667     14670     14672     14667     14670     14673
     14668     14667     14669     14668     14667     14670     14669     14667     14670
     14670     14673     14674     14670     14673     14675     14670     14673     14676
     14671     14670     14672     14671     14670     14673     14672     14670     14673
     14673     14676     14677     14673     14676     14678     14673     14676     14679
     14674     14673     14675     14674     14673     14676     14675     14673     14676
     14676     14679     14680     14676     14679     14681     14676     14679     14682
     14677     14676     14678     14677     14676     14679     14678     14676     14679
     14679     14682     14683     14679     14682     14684     14679     14682     14685
     14680     14679     14681     14680     14679     14682     14681     14679     14682
     14682     14685     14686     14682     14685     14687     14682     14685     14688
     14683     14682     14684     14683     14682     14685     14684     14682     14685
     14685     14688     14689     14685     14688     14690     14685     14688     14691
     14686     14685     14687     14686     14685     14688     14687     14685     14688
     14688     14691     14692     14688     14691     14693     14688     14691     14694
     14689     14688     14690     14689     14688     14691     14690     14688     14691
     14691     14694     14695     14691     14694     14696     14691     14694     14697
     14692     14691     14693     14692     14691     14694     14693     14691     14694
     14694     14697     14698     14694     14697     14699     14694     14697     14700
     14695     14694     14696     14695     14694     14697     14696     14694     14697
     14697     14700     14701     14697     14700     14702     14697     14700     14703
     14698     14697     14699     14698     14697     14700     14699     14697     14700
     14700     14703     14704     14700     14703     14705     14700     14703     14706
     14701     14700     14702     14701     14700     14703     14702     14700     14703
     14704     14703     14705     14704     14703     14706     14705     14703     14706
     14707     14708     14709     14707     14708     14710     14707     14708     14723
     14707     14711     14712     14707     14711     14713     14707     14711     14714
     14707     14715     14716     14707     14715     14717     14707     14715     14718
     14707     14719     14720     14707     14719     14721     14707     14719     14722
     14708     14707     14711     14708     14707     14715     14708     14707     14719
     14708     14723     14724     14708     14723     14725     14708     14723     14729
     14709     14708     14710     14709     14708     14723     14710     14708     14723
     14711     14707     14715     14711     14707     14719     14712     14711     14713
     14712     14711     14714     14713     14711     14714     14715     14707     14719
     14716     14715     14717     14716     14715     14718     14717     14715     14718
     14720     14719     14721     14720     14719     14722     14721     14719     14722
     14723     14729     14726     14724     14723     14725     14724     14723     14729
     14725     14723     14729     14726     14730     14731     14727     14726     14728
     14727     14726     14729     14727     14726     14730     14728     14726     14729
     14728     14726     14730     14729     14726     14730     14730     14731     14732
     14730     14731     14733     14730     14731     14734     14731     14734     14735
     14731     14734     14736     14731     14734     14742     14732     14731     14733
     14732     14731     14734     14733     14731     14734     14734     14736     14737
     14734     14742     14743     14734     14742     14744     14734     14742     14745
     14735     14734     14736     14735     14734     14742     14736     14734     14742
     14736     14737     14738     14736     14737     14739     14737     14739     14740
     14737     14739     14741     14737     14739     14751     14738     14737     14739
     14739     14751     14752     14739     14751     14753     14739     14751     14754
     14740     14739     14741     14740     14739     14751     14741     14739     14751
     14742     14745     14746     14743     14742     14744     14743     14742     14745
     14744     14742     14745     14745     14746     14747     14745     14746     14748
     14746     14748     14749     14746     14748     14750     14746     14748     14798
     14747     14746     14748     14748     14798     14799     14748     14798     14800
     14748     14798     14801     14749     14748     14750     14749     14748     14798
     14750     14748     14798     14751     14754     14755     14751     14754     14756
     14751     14754     14757     14752     14751     14753     14752     14751     14754
     14753     14751     14754     14754     14757     14758     14754     14757     14759
     14754     14757     14760     14755     14754     14756     14755     14754     14757
     14756     14754     14757     14757     14760     14761     14757     14760     14762
     14757     14760     14763     14758     14757     14759     14758     14757     14760
     14759     14757     14760     14760     14763     14764     14760     14763     14765
     14760     14763     14766     14761     14760     14762     14761     14760     14763
     14762     14760     14763     14763     14766     14767     14763     14766     14768
     14763     14766     14769     14764     14763     14765     14764     14763     14766
     14765     14763     14766     14766     14769     14770     14766     14769     14771
     14767     14766     14768     14767     14766     14769     14768     14766     14769
     14769     14771     14772     14769     14771     14773     14770     14769     14771
     14771     14773     14774     14771     14773     14775     14771     14773     14776
     14772     14771     14773     14773     14776     14777     14773     14776     14778
     14773     14776     14779     14774     14773     14775     14774     14773     14776
     14775     14773     14776     14776     14779     14780     14776     14779     14781
     14776     14779     14782     14777     14776     14778     14777     14776     14779
     14778     14776     14779     14779     14782     14783     14779     14782     14784
     14779     14782     14785     14780     14779     14781     14780     14779     14782
     14781     14779     14782     14782     14785     14786     14782     14785     14787
     14782     14785     14788     14783     14782     14784     14783     14782     14785
     14784     14782     14785     14785     14788     14789     14785     14788     14790
     14785     14788     14791     14786     14785     14787     14786     14785     14788
     14787     14785     14788     14788     14791     14792     14788     14791     14793
     14788     14791     14794     14789     14788     14790     14789     14788     14791
     14790     14788     14791     14791     14794     14795     14791     14794     14796
     14791     14794     14797     14792     14791     14793     14792     14791     14794
     14793     14791     14794     14795     14794     14796     14795     14794     14797
     14796     14794     14797     14798     14801     14802     14798     14801     14803
     14798     14801     14804     14799     14798     14800     14799     14798     14801
     14800     14798     14801     14801     14804     14805     14801     14804     14806
     14801     14804     14807     14802     14801     14803     14802     14801     14804
     14803     14801     14804     14804     14807     14808     14804     14807     14809
     14804     14807     14810     14805     14804     14806     14805     14804     14807
     14806     14804     14807     14807     14810     14811     14807     14810     14812
     14807     14810     14813     14808     14807     14809     14808     14807     14810
     14809     14807     14810     14810     14813     14814     14810     14813     14815
     14810     14813     14816     14811     14810     14812     14811     14810     14813
     14812     14810     14813     14813     14816     14817     14813     14816     14818
     14813     14816     14819     14814     14813     14815     14814     14813     14816
     14815     14813     14816     14816     14819     14820     14816     14819     14821
     14816     14819     14822     14817     14816     14818     14817     14816     14819
     14818     14816     14819     14819     14822     14823     14819     14822     14824
     14819     14822     14825     14820     14819     14821     14820     14819     14822
     14821     14819     14822     14822     14825     14826     14822     14825     14827
     14822     14825     14828     14823     14822     14824     14823     14822     14825
     14824     14822     14825     14825     14828     14829     14825     14828     14830
     14825     14828     14831     14826     14825     14827     14826     14825     14828
     14827     14825     14828     14828     14831     14832     14828     14831     14833
     14828     14831     14834     14829     14828     14830     14829     14828     14831
     14830     14828     14831     14831     14834     14835     14831     14834     14836
     14831     14834     14837     14832     14831     14833     14832     14831     14834
     14833     14831     14834     14834     14837     14838     14834     14837     14839
     14834     14837     14840     14835     14834     14836     14835     14834     14837
     14836     14834     14837     14838     14837     14839     14838     14837     14840
     14839     14837     14840     14841     14842     14843     14841     14842     14844
     14841     14842     14857     14841     14845     14846     14841     14845     14847
     14841     14845     14848     14841     14849     14850     14841     14849     14851
     14841     14849     14852     14841     14853     14854     14841     14853     14855
     14841     14853     14856     14842     14841     14845     14842     14841     14849
     14842     14841     14853     14842     14857     14858     14842     14857     14859
     14842     14857     14863     14843     14842     14844     14843     14842     14857
     14844     14842     14857     14845     14841     14849     14845     14841     14853
     14846     14845     14847     14846     14845     14848     14847     14845     14848
     14849     14841     14853     14850     14849     14851     14850     14849     14852
     14851     14849     14852     14854     14853     14855     14854     14853     14856
     14855     14853     14856     14857     14863     14860     14858     14857     14859
     14858     14857     14863     14859     14857     14863     14860     14864     14865
     14861     14860     14862     14861     14860     14863     14861     14860     14864
     14862     14860     14863     14862     14860     14864     14863     14860     14864
     14864     14865     14866     14864     14865     14867     14864     14865     14868
     14865     14868     14869     14865     14868     14870     14865     14868     14876
     14866     14865     14867     14866     14865     14868     14867     14865     14868
     14868     14870     14871     14868     14876     14877     14868     14876     14878
     14868     14876     14879     14869     14868     14870     14869     14868     14876
     14870     14868     14876     14870     14871     14872     14870     14871     14873
     14871     14873     14874     14871     14873     14875     14871     14873     14885
     14872     14871     14873     14873     14885     14886     14873     14885     14887
     14873     14885     14888     14874     14873     14875     14874     14873     14885
     14875     14873     14885     14876     14879     14880     14877     14876     14878
     14877     14876     14879     14878     14876     14879     14879     14880     14881
     14879     14880     14882     14880     14882     14883     14880     14882     14884
     14880     14882     14932     14881     14880     14882     14882     14932     14933
     14882     14932     14934     14882     14932     14935     14883     14882     14884
     14883     14882     14932     14884     14882     14932     14885     14888     14889
     14885     14888     14890     14885     14888     14891     14886     14885     14887
     14886     14885     14888     14887     14885     14888     14888     14891     14892
     14888     14891     14893     14888     14891     14894     14889     14888     14890
     14889     14888     14891     14890     14888     14891     14891     14894     14895
     14891     14894     14896     14891     14894     14897     14892     14891     14893
     14892     14891     14894     14893     14891     14894     14894     14897     14898
     14894     14897     14899     14894     14897     14900     14895     14894     14896
     14895     14894     14897     14896     14894     14897     14897     14900     14901
     14897     14900     14902     14897     14900     14903     14898     14897     14899
     14898     14897     14900     14899     14897     14900     14900     14903     14904
     14900     14903     14905     14901     14900     14902     14901     14900     14903
     14902     14900     14903     14903     14905     14906     14903     14905     14907
     14904     14903     14905     14905     14907     14908     14905     14907     14909
     14905     14907     14910     14906     14905     14907     14907     14910     14911
     14907     14910     14912     14907     14910     14913     14908     14907     14909
     14908     14907     14910     14909     14907     14910     14910     14913     14914
     14910     14913     14915     14910     14913     14916     14911     14910     14912
     14911     14910     14913     14912     14910     14913     14913     14916     14917
     14913     14916     14918     14913     14916     14919     14914     14913     14915
     14914     14913     14916     14915     14913     14916     14916     14919     14920
     14916     14919     14921     14916     14919     14922     14917     14916     14918
     14917     14916     14919     14918     14916     14919     14919     14922     14923
     14919     14922     14924     14919     14922     14925     14920     14919     14921
     14920     14919     14922     14921     14919     14922     14922     14925     14926
     14922     14925     14927     14922     14925     14928     14923     14922     14924
     14923     14922     14925     14924     14922     14925     14925     14928     14929
     14925     14928     14930     14925     14928     14931     14926     14925     14927
     14926     14925     14928     14927     14925     14928     14929     14928     14930
     14929     14928     14931     14930     14928     14931     14932     14935     14936
     14932     14935     14937     14932     14935     14938     14933     14932     14934
     14933     14932     14935     14934     14932     14935     14935     14938     14939
     14935     14938     14940     14935     14938     14941     14936     14935     14937
     14936     14935     14938     14937     14935     14938     14938     14941     14942
     14938     14941     14943     14938     14941     14944     14939     14938     14940
     14939     14938     14941     14940     14938     14941     14941     14944     14945
     14941     14944     14946     14941     14944     14947     14942     14941     14943
     14942     14941     14944     14943     14941     14944     14944     14947     14948
     14944     14947     14949     14944     14947     14950     14945     14944     14946
     14945     14944     14947     14946     14944     14947     14947     14950     14951
     14947     14950     14952     14947     14950     14953     14948     14947     14949
     14948     14947     14950     14949     14947     14950     14950     14953     14954
     14950     14953     14955     14950     14953     14956     14951     14950     14952
     14951     14950     14953     14952     14950     14953     14953     14956     14957
     14953     14956     14958     14953     14956     14959     14954     14953     14955
     14954     14953     14956     14955     14953     14956     14956     14959     14960
     14956     14959     14961     14956     14959     14962     14957     14956     14958
     14957     14956     14959     14958     14956     14959     14959     14962     14963
     14959     14962     14964     14959     14962     14965     14960     14959     14961
     14960     14959     14962     14961     14959     14962     14962     14965     14966
     14962     14965     14967     14962     14965     14968     14963     14962     14964
     14963     14962     14965     14964     14962     14965     14965     14968     14969
     14965     14968     14970     14965     14968     14971     14966     14965     14967
     14966     14965     14968     14967     14965     14968     14968     14971     14972
     14968     14971     14973     14968     14971     14974     14969     14968     14970
     14969     14968     14971     14970     14968     14971     14972     14971     14973
     14972     14971     14974     14973     14971     14974     14975     14979     14980
     14975     14979     14981     14975     14979     14984     14976     14975     14977
     14976     14975     14978     14976     14975     14979     14977     14975     14978
     14977     14975     14979     14978     14975     14979     14979     14981     14982
     14979     14981     14983     14979     14984     14985     14979     14984     14986
     14979     14984     14990     14980     14979     14981     14980     14979     14984
     14981     14979     14984     14982     14981     14983     14984     14990     14987
     14985     14984     14986     14985     14984     14990     14986     14984     14990
     14987     14991     14992     14988     14987     14989     14988     14987     14990
     14988     14987     14991     14989     14987     14990     14989     14987     14991
     14990     14987     14991     14991     14992     14993     14991     14992     14994
     14991     14992     14995     14992     14995     14996     14992     14995     14997
     14992     14995     15003     14993     14992     14994     14993     14992     14995
     14994     14992     14995     14995     14997     14998     14995     15003     15004
     14995     15003     15005     14995     15003     15006     14996     14995     14997
     14996     14995     15003     14997     14995     15003     14997     14998     14999
     14997     14998     15000     14998     15000     15001     14998     15000     15002
     14998     15000     15012     14999     14998     15000     15000     15012     15013
     15000     15012     15014     15000     15012     15015     15001     15000     15002
     15001     15000     15012     15002     15000     15012     15003     15006     15007
     15004     15003     15005     15004     15003     15006     15005     15003     15006
     15006     15007     15008     15006     15007     15009     15007     15009     15010
     15007     15009     15011     15007     15009     15059     15008     15007     15009
     15009     15059     15060     15009     15059     15061     15009     15059     15062
     15010     15009     15011     15010     15009     15059     15011     15009     15059
     15012     15015     15016     15012     15015     15017     15012     15015     15018
     15013     15012     15014     15013     15012     15015     15014     15012     15015
     15015     15018     15019     15015     15018     15020     15015     15018     15021
     15016     15015     15017     15016     15015     15018     15017     15015     15018
     15018     15021     15022     15018     15021     15023     15018     15021     15024
     15019     15018     15020     15019     15018     15021     15020     15018     15021
     15021     15024     15025     15021     15024     15026     15021     15024     15027
     15022     15021     15023     15022     15021     15024     15023     15021     15024
     15024     15027     15028     15024     15027     15029     15024     15027     15030
     15025     15024     15026     15025     15024     15027     15026     15024     15027
     15027     15030     15031     15027     15030     15032     15028     15027     15029
     15028     15027     15030     15029     15027     15030     15030     15032     15033
     15030     15032     15034     15031     15030     15032     15032     15034     15035
     15032     15034     15036     15032     15034     15037     15033     15032     15034
     15034     15037     15038     15034     15037     15039     15034     15037     15040
     15035     15034     15036     15035     15034     15037     15036     15034     15037
     15037     15040     15041     15037     15040     15042     15037     15040     15043
     15038     15037     15039     15038     15037     15040     15039     15037     15040
     15040     15043     15044     15040     15043     15045     15040     15043     15046
     15041     15040     15042     15041     15040     15043     15042     15040     15043
     15043     15046     15047     15043     15046     15048     15043     15046     15049
     15044     15043     15045     15044     15043     15046     15045     15043     15046
     15046     15049     15050     15046     15049     15051     15046     15049     15052
     15047     15046     15048     15047     15046     15049     15048     15046     15049
     15049     15052     15053     15049     15052     15054     15049     15052     15055
     15050     15049     15051     15050     15049     15052     15051     15049     15052
     15052     15055     15056     15052     15055     15057     15052     15055     15058
     15053     15052     15054     15053     15052     15055     15054     15052     15055
     15056     15055     15057     15056     15055     15058     15057     15055     15058
     15059     15062     15063     15059     15062     15064     15059     15062     15065
     15060     15059     15061     15060     15059     15062     15061     15059     15062
     15062     15065     15066     15062     15065     15067     15062     15065     15068
     15063     15062     15064     15063     15062     15065     15064     15062     15065
     15065     15068     15069     15065     15068     15070     15065     15068     15071
     15066     15065     15067     15066     15065     15068     15067     15065     15068
     15068     15071     15072     15068     15071     15073     15068     15071     15074
     15069     15068     15070     15069     15068     15071     15070     15068     15071
     15071     15074     15075     15071     15074     15076     15071     15074     15077
     15072     15071     15073     15072     15071     15074     15073     15071     15074
     15074     15077     15078     15074     15077     15079     15074     15077     15080
     15075     15074     15076     15075     15074     15077     15076     15074     15077
     15077     15080     15081     15077     15080     15082     15077     15080     15083
     15078     15077     15079     15078     15077     15080     15079     15077     15080
     15080     15083     15084     15080     15083     15085     15080     15083     15086
     15081     15080     15082     15081     15080     15083     15082     15080     15083
     15083     15086     15087     15083     15086     15088     15083     15086     15089
     15084     15083     15085     15084     15083     15086     15085     15083     15086
     15086     15089     15090     15086     15089     15091     15086     15089     15092
     15087     15086     15088     15087     15086     15089     15088     15086     15089
     15089     15092     15093     15089     15092     15094     15089     15092     15095
     15090     15089     15091     15090     15089     15092     15091     15089     15092
     15092     15095     15096     15092     15095     15097     15092     15095     15098
     15093     15092     15094     15093     15092     15095     15094     15092     15095
     15095     15098     15099     15095     15098     15100     15095     15098     15101
     15096     15095     15097     15096     15095     15098     15097     15095     15098
     15099     15098     15100     15099     15098     15101     15100     15098     15101
     15102     15103     15104     15102     15103     15105     15102     15103     15118
     15102     15106     15107     15102     15106     15108     15102     15106     15109
     15102     15110     15111     15102     15110     15112     15102     15110     15113
     15102     15114     15115     15102     15114     15116     15102     15114     15117
     15103     15102     15106     15103     15102     15110     15103     15102     15114
     15103     15118     15119     15103     15118     15120     15103     15118     15124
     15104     15103     15105     15104     15103     15118     15105     15103     15118
     15106     15102     15110     15106     15102     15114     15107     15106     15108
     15107     15106     15109     15108     15106     15109     15110     15102     15114
     15111     15110     15112     15111     15110     15113     15112     15110     15113
     15115     15114     15116     15115     15114     15117     15116     15114     15117
     15118     15124     15121     15119     15118     15120     15119     15118     15124
     15120     15118     15124     15121     15125     15126     15122     15121     15123
     15122     15121     15124     15122     15121     15125     15123     15121     15124
     15123     15121     15125     15124     15121     15125     15125     15126     15127
     15125     15126     15128     15125     15126     15129     15126     15129     15130
     15126     15129     15131     15126     15129     15137     15127     15126     15128
     15127     15126     15129     15128     15126     15129     15129     15131     15132
     15129     15137     15138     15129     15137     15139     15129     15137     15140
     15130     15129     15131     15130     15129     15137     15131     15129     15137
     15131     15132     15133     15131     15132     15134     15132     15134     15135
     15132     15134     15136     15132     15134     15146     15133     15132     15134
     15134     15146     15147     15134     15146     15148     15134     15146     15149
     15135     15134     15136     15135     15134     15146     15136     15134     15146
     15137     15140     15141     15138     15137     15139     15138     15137     15140
     15139     15137     15140     15140     15141     15142     15140     15141     15143
     15141     15143     15144     15141     15143     15145     15141     15143     15193
     15142     15141     15143     15143     15193     15194     15143     15193     15195
     15143     15193     15196     15144     15143     15145     15144     15143     15193
     15145     15143     15193     15146     15149     15150     15146     15149     15151
     15146     15149     15152     15147     15146     15148     15147     15146     15149
     15148     15146     15149     15149     15152     15153     15149     15152     15154
     15149     15152     15155     15150     15149     15151     15150     15149     15152
     15151     15149     15152     15152     15155     15156     15152     15155     15157
     15152     15155     15158     15153     15152     15154     15153     15152     15155
     15154     15152     15155     15155     15158     15159     15155     15158     15160
     15155     15158     15161     15156     15155     15157     15156     15155     15158
     15157     15155     15158     15158     15161     15162     15158     15161     15163
     15158     15161     15164     15159     15158     15160     15159     15158     15161
     15160     15158     15161     15161     15164     15165     15161     15164     15166
     15162     15161     15163     15162     15161     15164     15163     15161     15164
     15164     15166     15167     15164     15166     15168     15165     15164     15166
     15166     15168     15169     15166     15168     15170     15166     15168     15171
     15167     15166     15168     15168     15171     15172     15168     15171     15173
     15168     15171     15174     15169     15168     15170     15169     15168     15171
     15170     15168     15171     15171     15174     15175     15171     15174     15176
     15171     15174     15177     15172     15171     15173     15172     15171     15174
     15173     15171     15174     15174     15177     15178     15174     15177     15179
     15174     15177     15180     15175     15174     15176     15175     15174     15177
     15176     15174     15177     15177     15180     15181     15177     15180     15182
     15177     15180     15183     15178     15177     15179     15178     15177     15180
     15179     15177     15180     15180     15183     15184     15180     15183     15185
     15180     15183     15186     15181     15180     15182     15181     15180     15183
     15182     15180     15183     15183     15186     15187     15183     15186     15188
     15183     15186     15189     15184     15183     15185     15184     15183     15186
     15185     15183     15186     15186     15189     15190     15186     15189     15191
     15186     15189     15192     15187     15186     15188     15187     15186     15189
     15188     15186     15189     15190     15189     15191     15190     15189     15192
     15191     15189     15192     15193     15196     15197     15193     15196     15198
     15193     15196     15199     15194     15193     15195     15194     15193     15196
     15195     15193     15196     15196     15199     15200     15196     15199     15201
     15196     15199     15202     15197     15196     15198     15197     15196     15199
     15198     15196     15199     15199     15202     15203     15199     15202     15204
     15199     15202     15205     15200     15199     15201     15200     15199     15202
     15201     15199     15202     15202     15205     15206     15202     15205     15207
     15202     15205     15208     15203     15202     15204     15203     15202     15205
     15204     15202     15205     15205     15208     15209     15205     15208     15210
     15205     15208     15211     15206     15205     15207     15206     15205     15208
     15207     15205     15208     15208     15211     15212     15208     15211     15213
     15208     15211     15214     15209     15208     15210     15209     15208     15211
     15210     15208     15211     15211     15214     15215     15211     15214     15216
     15211     15214     15217     15212     15211     15213     15212     15211     15214
     15213     15211     15214     15214     15217     15218     15214     15217     15219
     15214     15217     15220     15215     15214     15216     15215     15214     15217
     15216     15214     15217     15217     15220     15221     15217     15220     15222
     15217     15220     15223     15218     15217     15219     15218     15217     15220
     15219     15217     15220     15220     15223     15224     15220     15223     15225
     15220     15223     15226     15221     15220     15222     15221     15220     15223
     15222     15220     15223     15223     15226     15227     15223     15226     15228
     15223     15226     15229     15224     15223     15225     15224     15223     15226
     15225     15223     15226     15226     15229     15230     15226     15229     15231
     15226     15229     15232     15227     15226     15228     15227     15226     15229
     15228     15226     15229     15229     15232     15233     15229     15232     15234
     15229     15232     15235     15230     15229     15231     15230     15229     15232
     15231     15229     15232     15233     15232     15234     15233     15232     15235
     15234     15232     15235     15236     15237     15238     15236     15237     15239
     15236     15237     15252     15236     15240     15241     15236     15240     15242
     15236     15240     15243     15236     15244     15245     15236     15244     15246
     15236     15244     15247     15236     15248     15249     15236     15248     15250
     15236     15248     15251     15237     15236     15240     15237     15236     15244
     15237     15236     15248     15237     15252     15253     15237     15252     15254
     15237     15252     15258     15238     15237     15239     15238     15237     15252
     15239     15237     15252     15240     15236     15244     15240     15236     15248
     15241     15240     15242     15241     15240     15243     15242     15240     15243
     15244     15236     15248     15245     15244     15246     15245     15244     15247
     15246     15244     15247     15249     15248     15250     15249     15248     15251
     15250     15248     15251     15252     15258     15255     15253     15252     15254
     15253     15252     15258     15254     15252     15258     15255     15259     15260
     15256     15255     15257     15256     15255     15258     15256     15255     15259
     15257     15255     15258     15257     15255     15259     15258     15255     15259
     15259     15260     15261     15259     15260     15262     15259     15260     15263
     15260     15263     15264     15260     15263     15265     15260     15263     15271
     15261     15260     15262     15261     15260     15263     15262     15260     15263
     15263     15265     15266     15263     15271     15272     15263     15271     15273
     15263     15271     15274     15264     15263     15265     15264     15263     15271
     15265     15263     15271     15265     15266     15267     15265     15266     15268
     15266     15268     15269     15266     15268     15270     15266     15268     15280
     15267     15266     15268     15268     15280     15281     15268     15280     15282
     15268     15280     15283     15269     15268     15270     15269     15268     15280
     15270     15268     15280     15271     15274     15275     15272     15271     15273
     15272     15271     15274     15273     15271     15274     15274     15275     15276
     15274     15275     15277     15275     15277     15278     15275     15277     15279
     15275     15277     15327     15276     15275     15277     15277     15327     15328
     15277     15327     15329     15277     15327     15330     15278     15277     15279
     15278     15277     15327     15279     15277     15327     15280     15283     15284
     15280     15283     15285     15280     15283     15286     15281     15280     15282
     15281     15280     15283     15282     15280     15283     15283     15286     15287
     15283     15286     15288     15283     15286     15289     15284     15283     15285
     15284     15283     15286     15285     15283     15286     15286     15289     15290
     15286     15289     15291     15286     15289     15292     15287     15286     15288
     15287     15286     15289     15288     15286     15289     15289     15292     15293
     15289     15292     15294     15289     15292     15295     15290     15289     15291
     15290     15289     15292     15291     15289     15292     15292     15295     15296
     15292     15295     15297     15292     15295     15298     15293     15292     15294
     15293     15292     15295     15294     15292     15295     15295     15298     15299
     15295     15298     15300     15296     15295     15297     15296     15295     15298
     15297     15295     15298     15298     15300     15301     15298     15300     15302
     15299     15298     15300     15300     15302     15303     15300     15302     15304
     15300     15302     15305     15301     15300     15302     15302     15305     15306
     15302     15305     15307     15302     15305     15308     15303     15302     15304
     15303     15302     15305     15304     15302     15305     15305     15308     15309
     15305     15308     15310     15305     15308     15311     15306     15305     15307
     15306     15305     15308     15307     15305     15308     15308     15311     15312
     15308     15311     15313     15308     15311     15314     15309     15308     15310
     15309     15308     15311     15310     15308     15311     15311     15314     15315
     15311     15314     15316     15311     15314     15317     15312     15311     15313
     15312     15311     15314     15313     15311     15314     15314     15317     15318
     15314     15317     15319     15314     15317     15320     15315     15314     15316
     15315     15314     15317     15316     15314     15317     15317     15320     15321
     15317     15320     15322     15317     15320     15323     15318     15317     15319
     15318     15317     15320     15319     15317     15320     15320     15323     15324
     15320     15323     15325     15320     15323     15326     15321     15320     15322
     15321     15320     15323     15322     15320     15323     15324     15323     15325
     15324     15323     15326     15325     15323     15326     15327     15330     15331
     15327     15330     15332     15327     15330     15333     15328     15327     15329
     15328     15327     15330     15329     15327     15330     15330     15333     15334
     15330     15333     15335     15330     15333     15336     15331     15330     15332
     15331     15330     15333     15332     15330     15333     15333     15336     15337
     15333     15336     15338     15333     15336     15339     15334     15333     15335
     15334     15333     15336     15335     15333     15336     15336     15339     15340
     15336     15339     15341     15336     15339     15342     15337     15336     15338
     15337     15336     15339     15338     15336     15339     15339     15342     15343
     15339     15342     15344     15339     15342     15345     15340     15339     15341
     15340     15339     15342     15341     15339     15342     15342     15345     15346
     15342     15345     15347     15342     15345     15348     15343     15342     15344
     15343     15342     15345     15344     15342     15345     15345     15348     15349
     15345     15348     15350     15345     15348     15351     15346     15345     15347
     15346     15345     15348     15347     15345     15348     15348     15351     15352
     15348     15351     15353     15348     15351     15354     15349     15348     15350
     15349     15348     15351     15350     15348     15351     15351     15354     15355
     15351     15354     15356     15351     15354     15357     15352     15351     15353
     15352     15351     15354     15353     15351     15354     15354     15357     15358
     15354     15357     15359     15354     15357     15360     15355     15354     15356
     15355     15354     15357     15356     15354     15357     15357     15360     15361
     15357     15360     15362     15357     15360     15363     15358     15357     15359
     15358     15357     15360     15359     15357     15360     15360     15363     15364
     15360     15363     15365     15360     15363     15366     15361     15360     15362
     15361     15360     15363     15362     15360     15363     15363     15366     15367
     15363     15366     15368     15363     15366     15369     15364     15363     15365
     15364     15363     15366     15365     15363     15366     15367     15366     15368
     15367     15366     15369     15368     15366     15369     15370     15371     15372
     15370     15371     15373     15370     15371     15386     15370     15374     15375
     15370     15374     15376     15370     15374     15377     15370     15378     15379
     15370     15378     15380     15370     15378     15381     15370     15382     15383
     15370     15382     15384     15370     15382     15385     15371     15370     15374
     15371     15370     15378     15371     15370     15382     15371     15386     15387
     15371     15386     15388     15371     15386     15392     15372     15371     15373
     15372     15371     15386     15373     15371     15386     15374     15370     15378
     15374     15370     15382     15375     15374     15376     15375     15374     15377
     15376     15374     15377     15378     15370     15382     15379     15378     15380
     15379     15378     15381     15380     15378     15381     15383     15382     15384
     15383     15382     15385     15384     15382     15385     15386     15392     15389
     15387     15386     15388     15387     15386     15392     15388     15386     15392
     15389     15393     15394     15390     15389     15391     15390     15389     15392
     15390     15389     15393     15391     15389     15392     15391     15389     15393
     15392     15389     15393     15393     15394     15395     15393     15394     15396
     15393     15394     15397     15394     15397     15398     15394     15397     15399
     15394     15397     15405     15395     15394     15396     15395     15394     15397
     15396     15394     15397     15397     15399     15400     15397     15405     15406
     15397     15405     15407     15397     15405     15408     15398     15397     15399
     15398     15397     15405     15399     15397     15405     15399     15400     15401
     15399     15400     15402     15400     15402     15403     15400     15402     15404
     15400     15402     15414     15401     15400     15402     15402     15414     15415
     15402     15414     15416     15402     15414     15417     15403     15402     15404
     15403     15402     15414     15404     15402     15414     15405     15408     15409
     15406     15405     15407     15406     15405     15408     15407     15405     15408
     15408     15409     15410     15408     15409     15411     15409     15411     15412
     15409     15411     15413     15409     15411     15461     15410     15409     15411
     15411     15461     15462     15411     15461     15463     15411     15461     15464
     15412     15411     15413     15412     15411     15461     15413     15411     15461
     15414     15417     15418     15414     15417     15419     15414     15417     15420
     15415     15414     15416     15415     15414     15417     15416     15414     15417
     15417     15420     15421     15417     15420     15422     15417     15420     15423
     15418     15417     15419     15418     15417     15420     15419     15417     15420
     15420     15423     15424     15420     15423     15425     15420     15423     15426
     15421     15420     15422     15421     15420     15423     15422     15420     15423
     15423     15426     15427     15423     15426     15428     15423     15426     15429
     15424     15423     15425     15424     15423     15426     15425     15423     15426
     15426     15429     15430     15426     15429     15431     15426     15429     15432
     15427     15426     15428     15427     15426     15429     15428     15426     15429
     15429     15432     15433     15429     15432     15434     15430     15429     15431
     15430     15429     15432     15431     15429     15432     15432     15434     15435
     15432     15434     15436     15433     15432     15434     15434     15436     15437
     15434     15436     15438     15434     15436     15439     15435     15434     15436
     15436     15439     15440     15436     15439     15441     15436     15439     15442
     15437     15436     15438     15437     15436     15439     15438     15436     15439
     15439     15442     15443     15439     15442     15444     15439     15442     15445
     15440     15439     15441     15440     15439     15442     15441     15439     15442
     15442     15445     15446     15442     15445     15447     15442     15445     15448
     15443     15442     15444     15443     15442     15445     15444     15442     15445
     15445     15448     15449     15445     15448     15450     15445     15448     15451
     15446     15445     15447     15446     15445     15448     15447     15445     15448
     15448     15451     15452     15448     15451     15453     15448     15451     15454
     15449     15448     15450     15449     15448     15451     15450     15448     15451
     15451     15454     15455     15451     15454     15456     15451     15454     15457
     15452     15451     15453     15452     15451     15454     15453     15451     15454
     15454     15457     15458     15454     15457     15459     15454     15457     15460
     15455     15454     15456     15455     15454     15457     15456     15454     15457
     15458     15457     15459     15458     15457     15460     15459     15457     15460
     15461     15464     15465     15461     15464     15466     15461     15464     15467
     15462     15461     15463     15462     15461     15464     15463     15461     15464
     15464     15467     15468     15464     15467     15469     15464     15467     15470
     15465     15464     15466     15465     15464     15467     15466     15464     15467
     15467     15470     15471     15467     15470     15472     15467     15470     15473
     15468     15467     15469     15468     15467     15470     15469     15467     15470
     15470     15473     15474     15470     15473     15475     15470     15473     15476
     15471     15470     15472     15471     15470     15473     15472     15470     15473
     15473     15476     15477     15473     15476     15478     15473     15476     15479
     15474     15473     15475     15474     15473     15476     15475     15473     15476
     15476     15479     15480     15476     15479     15481     15476     15479     15482
     15477     15476     15478     15477     15476     15479     15478     15476     15479
     15479     15482     15483     15479     15482     15484     15479     15482     15485
     15480     15479     15481     15480     15479     15482     15481     15479     15482
     15482     15485     15486     15482     15485     15487     15482     15485     15488
     15483     15482     15484     15483     15482     15485     15484     15482     15485
     15485     15488     15489     15485     15488     15490     15485     15488     15491
     15486     15485     15487     15486     15485     15488     15487     15485     15488
     15488     15491     15492     15488     15491     15493     15488     15491     15494
     15489     15488     15490     15489     15488     15491     15490     15488     15491
     15491     15494     15495     15491     15494     15496     15491     15494     15497
     15492     15491     15493     15492     15491     15494     15493     15491     15494
     15494     15497     15498     15494     15497     15499     15494     15497     15500
     15495     15494     15496     15495     15494     15497     15496     15494     15497
     15497     15500     15501     15497     15500     15502     15497     15500     15503
     15498     15497     15499     15498     15497     15500     15499     15497     15500
     15501     15500     15502     15501     15500     15503     15502     15500     15503
     15504     15508     15509     15504     15508     15510     15504     15508     15513
     15505     15504     15506     15505     15504     15507     15505     15504     15508
     15506     15504     15507     15506     15504     15508     15507     15504     15508
     15508     15510     15511     15508     15510     15512     15508     15513     15514
     15508     15513     15515     15508     15513     15519     15509     15508     15510
     15509     15508     15513     15510     15508     15513     15511     15510     15512
     15513     15519     15516     15514     15513     15515     15514     15513     15519
     15515     15513     15519     15516     15520     15521     15517     15516     15518
     15517     15516     15519     15517     15516     15520     15518     15516     15519
     15518     15516     15520     15519     15516     15520     15520     15521     15522
     15520     15521     15523     15520     15521     15524     15521     15524     15525
     15521     15524     15526     15521     15524     15532     15522     15521     15523
     15522     15521     15524     15523     15521     15524     15524     15526     15527
     15524     15532     15533     15524     15532     15534     15524     15532     15535
     15525     15524     15526     15525     15524     15532     15526     15524     15532
     15526     15527     15528     15526     15527     15529     15527     15529     15530
     15527     15529     15531     15527     15529     15541     15528     15527     15529
     15529     15541     15542     15529     15541     15543     15529     15541     15544
     15530     15529     15531     15530     15529     15541     15531     15529     15541
     15532     15535     15536     15533     15532     15534     15533     15532     15535
     15534     15532     15535     15535     15536     15537     15535     15536     15538
     15536     15538     15539     15536     15538     15540     15536     15538     15588
     15537     15536     15538     15538     15588     15589     15538     15588     15590
     15538     15588     15591     15539     15538     15540     15539     15538     15588
     15540     15538     15588     15541     15544     15545     15541     15544     15546
     15541     15544     15547     15542     15541     15543     15542     15541     15544
     15543     15541     15544     15544     15547     15548     15544     15547     15549
     15544     15547     15550     15545     15544     15546     15545     15544     15547
     15546     15544     15547     15547     15550     15551     15547     15550     15552
     15547     15550     15553     15548     15547     15549     15548     15547     15550
     15549     15547     15550     15550     15553     15554     15550     15553     15555
     15550     15553     15556     15551     15550     15552     15551     15550     15553
     15552     15550     15553     15553     15556     15557     15553     15556     15558
     15553     15556     15559     15554     15553     15555     15554     15553     15556
     15555     15553     15556     15556     15559     15560     15556     15559     15561
     15557     15556     15558     15557     15556     15559     15558     15556     15559
     15559     15561     15562     15559     15561     15563     15560     15559     15561
     15561     15563     15564     15561     15563     15565     15561     15563     15566
     15562     15561     15563     15563     15566     15567     15563     15566     15568
     15563     15566     15569     15564     15563     15565     15564     15563     15566
     15565     15563     15566     15566     15569     15570     15566     15569     15571
     15566     15569     15572     15567     15566     15568     15567     15566     15569
     15568     15566     15569     15569     15572     15573     15569     15572     15574
     15569     15572     15575     15570     15569     15571     15570     15569     15572
     15571     15569     15572     15572     15575     15576     15572     15575     15577
     15572     15575     15578     15573     15572     15574     15573     15572     15575
     15574     15572     15575     15575     15578     15579     15575     15578     15580
     15575     15578     15581     15576     15575     15577     15576     15575     15578
     15577     15575     15578     15578     15581     15582     15578     15581     15583
     15578     15581     15584     15579     15578     15580     15579     15578     15581
     15580     15578     15581     15581     15584     15585     15581     15584     15586
     15581     15584     15587     15582     15581     15583     15582     15581     15584
     15583     15581     15584     15585     15584     15586     15585     15584     15587
     15586     15584     15587     15588     15591     15592     15588     15591     15593
     15588     15591     15594     15589     15588     15590     15589     15588     15591
     15590     15588     15591     15591     15594     15595     15591     15594     15596
     15591     15594     15597     15592     15591     15593     15592     15591     15594
     15593     15591     15594     15594     15597     15598     15594     15597     15599
     15594     15597     15600     15595     15594     15596     15595     15594     15597
     15596     15594     15597     15597     15600     15601     15597     15600     15602
     15597     15600     15603     15598     15597     15599     15598     15597     15600
     15599     15597     15600     15600     15603     15604     15600     15603     15605
     15600     15603     15606     15601     15600     15602     15601     15600     15603
     15602     15600     15603     15603     15606     15607     15603     15606     15608
     15603     15606     15609     15604     15603     15605     15604     15603     15606
     15605     15603     15606     15606     15609     15610     15606     15609     15611
     15606     15609     15612     15607     15606     15608     15607     15606     15609
     15608     15606     15609     15609     15612     15613     15609     15612     15614
     15609     15612     15615     15610     15609     15611     15610     15609     15612
     15611     15609     15612     15612     15615     15616     15612     15615     15617
     15612     15615     15618     15613     15612     15614     15613     15612     15615
     15614     15612     15615     15615     15618     15619     15615     15618     15620
     15615     15618     15621     15616     15615     15617     15616     15615     15618
     15617     15615     15618     15618     15621     15622     15618     15621     15623
     15618     15621     15624     15619     15618     15620     15619     15618     15621
     15620     15618     15621     15621     15624     15625     15621     15624     15626
     15621     15624     15627     15622     15621     15623     15622     15621     15624
     15623     15621     15624     15624     15627     15628     15624     15627     15629
     15624     15627     15630     15625     15624     15626     15625     15624     15627
     15626     15624     15627     15628     15627     15629     15628     15627     15630
     15629     15627     15630     15631     15632     15633     15631     15632     15634
     15631     15632     15647     15631     15635     15636     15631     15635     15637
     15631     15635     15638     15631     15639     15640     15631     15639     15641
     15631     15639     15642     15631     15643     15644     15631     15643     15645
     15631     15643     15646     15632     15631     15635     15632     15631     15639
     15632     15631     15643     15632     15647     15648     15632     15647     15649
     15632     15647     15653     15633     15632     15634     15633     15632     15647
     15634     15632     15647     15635     15631     15639     15635     15631     15643
     15636     15635     15637     15636     15635     15638     15637     15635     15638
     15639     15631     15643     15640     15639     15641     15640     15639     15642
     15641     15639     15642     15644     15643     15645     15644     15643     15646
     15645     15643     15646     15647     15653     15650     15648     15647     15649
     15648     15647     15653     15649     15647     15653     15650     15654     15655
     15651     15650     15652     15651     15650     15653     15651     15650     15654
     15652     15650     15653     15652     15650     15654     15653     15650     15654
     15654     15655     15656     15654     15655     15657     15654     15655     15658
     15655     15658     15659     15655     15658     15660     15655     15658     15666
     15656     15655     15657     15656     15655     15658     15657     15655     15658
     15658     15660     15661     15658     15666     15667     15658     15666     15668
     15658     15666     15669     15659     15658     15660     15659     15658     15666
     15660     15658     15666     15660     15661     15662     15660     15661     15663
     15661     15663     15664     15661     15663     15665     15661     15663     15675
     15662     15661     15663     15663     15675     15676     15663     15675     15677
     15663     15675     15678     15664     15663     15665     15664     15663     15675
     15665     15663     15675     15666     15669     15670     15667     15666     15668
     15667     15666     15669     15668     15666     15669     15669     15670     15671
     15669     15670     15672     15670     15672     15673     15670     15672     15674
     15670     15672     15722     15671     15670     15672     15672     15722     15723
     15672     15722     15724     15672     15722     15725     15673     15672     15674
     15673     15672     15722     15674     15672     15722     15675     15678     15679
     15675     15678     15680     15675     15678     15681     15676     15675     15677
     15676     15675     15678     15677     15675     15678     15678     15681     15682
     15678     15681     15683     15678     15681     15684     15679     15678     15680
     15679     15678     15681     15680     15678     15681     15681     15684     15685
     15681     15684     15686     15681     15684     15687     15682     15681     15683
     15682     15681     15684     15683     15681     15684     15684     15687     15688
     15684     15687     15689     15684     15687     15690     15685     15684     15686
     15685     15684     15687     15686     15684     15687     15687     15690     15691
     15687     15690     15692     15687     15690     15693     15688     15687     15689
     15688     15687     15690     15689     15687     15690     15690     15693     15694
     15690     15693     15695     15691     15690     15692     15691     15690     15693
     15692     15690     15693     15693     15695     15696     15693     15695     15697
     15694     15693     15695     15695     15697     15698     15695     15697     15699
     15695     15697     15700     15696     15695     15697     15697     15700     15701
     15697     15700     15702     15697     15700     15703     15698     15697     15699
     15698     15697     15700     15699     15697     15700     15700     15703     15704
     15700     15703     15705     15700     15703     15706     15701     15700     15702
     15701     15700     15703     15702     15700     15703     15703     15706     15707
     15703     15706     15708     15703     15706     15709     15704     15703     15705
     15704     15703     15706     15705     15703     15706     15706     15709     15710
     15706     15709     15711     15706     15709     15712     15707     15706     15708
     15707     15706     15709     15708     15706     15709     15709     15712     15713
     15709     15712     15714     15709     15712     15715     15710     15709     15711
     15710     15709     15712     15711     15709     15712     15712     15715     15716
     15712     15715     15717     15712     15715     15718     15713     15712     15714
     15713     15712     15715     15714     15712     15715     15715     15718     15719
     15715     15718     15720     15715     15718     15721     15716     15715     15717
     15716     15715     15718     15717     15715     15718     15719     15718     15720
     15719     15718     15721     15720     15718     15721     15722     15725     15726
     15722     15725     15727     15722     15725     15728     15723     15722     15724
     15723     15722     15725     15724     15722     15725     15725     15728     15729
     15725     15728     15730     15725     15728     15731     15726     15725     15727
     15726     15725     15728     15727     15725     15728     15728     15731     15732
     15728     15731     15733     15728     15731     15734     15729     15728     15730
     15729     15728     15731     15730     15728     15731     15731     15734     15735
     15731     15734     15736     15731     15734     15737     15732     15731     15733
     15732     15731     15734     15733     15731     15734     15734     15737     15738
     15734     15737     15739     15734     15737     15740     15735     15734     15736
     15735     15734     15737     15736     15734     15737     15737     15740     15741
     15737     15740     15742     15737     15740     15743     15738     15737     15739
     15738     15737     15740     15739     15737     15740     15740     15743     15744
     15740     15743     15745     15740     15743     15746     15741     15740     15742
     15741     15740     15743     15742     15740     15743     15743     15746     15747
     15743     15746     15748     15743     15746     15749     15744     15743     15745
     15744     15743     15746     15745     15743     15746     15746     15749     15750
     15746     15749     15751     15746     15749     15752     15747     15746     15748
     15747     15746     15749     15748     15746     15749     15749     15752     15753
     15749     15752     15754     15749     15752     15755     15750     15749     15751
     15750     15749     15752     15751     15749     15752     15752     15755     15756
     15752     15755     15757     15752     15755     15758     15753     15752     15754
     15753     15752     15755     15754     15752     15755     15755     15758     15759
     15755     15758     15760     15755     15758     15761     15756     15755     15757
     15756     15755     15758     15757     15755     15758     15758     15761     15762
     15758     15761     15763     15758     15761     15764     15759     15758     15760
     15759     15758     15761     15760     15758     15761     15762     15761     15763
     15762     15761     15764     15763     15761     15764     15765     15766     15767
     15765     15766     15768     15765     15766     15781     15765     15769     15770
     15765     15769     15771     15765     15769     15772     15765     15773     15774
     15765     15773     15775     15765     15773     15776     15765     15777     15778
     15765     15777     15779     15765     15777     15780     15766     15765     15769
     15766     15765     15773     15766     15765     15777     15766     15781     15782
     15766     15781     15783     15766     15781     15787     15767     15766     15768
     15767     15766     15781     15768     15766     15781     15769     15765     15773
     15769     15765     15777     15770     15769     15771     15770     15769     15772
     15771     15769     15772     15773     15765     15777     15774     15773     15775
     15774     15773     15776     15775     15773     15776     15778     15777     15779
     15778     15777     15780     15779     15777     15780     15781     15787     15784
     15782     15781     15783     15782     15781     15787     15783     15781     15787
     15784     15788     15789     15785     15784     15786     15785     15784     15787
     15785     15784     15788     15786     15784     15787     15786     15784     15788
     15787     15784     15788     15788     15789     15790     15788     15789     15791
     15788     15789     15792     15789     15792     15793     15789     15792     15794
     15789     15792     15800     15790     15789     15791     15790     15789     15792
     15791     15789     15792     15792     15794     15795     15792     15800     15801
     15792     15800     15802     15792     15800     15803     15793     15792     15794
     15793     15792     15800     15794     15792     15800     15794     15795     15796
     15794     15795     15797     15795     15797     15798     15795     15797     15799
     15795     15797     15809     15796     15795     15797     15797     15809     15810
     15797     15809     15811     15797     15809     15812     15798     15797     15799
     15798     15797     15809     15799     15797     15809     15800     15803     15804
     15801     15800     15802     15801     15800     15803     15802     15800     15803
     15803     15804     15805     15803     15804     15806     15804     15806     15807
     15804     15806     15808     15804     15806     15856     15805     15804     15806
     15806     15856     15857     15806     15856     15858     15806     15856     15859
     15807     15806     15808     15807     15806     15856     15808     15806     15856
     15809     15812     15813     15809     15812     15814     15809     15812     15815
     15810     15809     15811     15810     15809     15812     15811     15809     15812
     15812     15815     15816     15812     15815     15817     15812     15815     15818
     15813     15812     15814     15813     15812     15815     15814     15812     15815
     15815     15818     15819     15815     15818     15820     15815     15818     15821
     15816     15815     15817     15816     15815     15818     15817     15815     15818
     15818     15821     15822     15818     15821     15823     15818     15821     15824
     15819     15818     15820     15819     15818     15821     15820     15818     15821
     15821     15824     15825     15821     15824     15826     15821     15824     15827
     15822     15821     15823     15822     15821     15824     15823     15821     15824
     15824     15827     15828     15824     15827     15829     15825     15824     15826
     15825     15824     15827     15826     15824     15827     15827     15829     15830
     15827     15829     15831     15828     15827     15829     15829     15831     15832
     15829     15831     15833     15829     15831     15834     15830     15829     15831
     15831     15834     15835     15831     15834     15836     15831     15834     15837
     15832     15831     15833     15832     15831     15834     15833     15831     15834
     15834     15837     15838     15834     15837     15839     15834     15837     15840
     15835     15834     15836     15835     15834     15837     15836     15834     15837
     15837     15840     15841     15837     15840     15842     15837     15840     15843
     15838     15837     15839     15838     15837     15840     15839     15837     15840
     15840     15843     15844     15840     15843     15845     15840     15843     15846
     15841     15840     15842     15841     15840     15843     15842     15840     15843
     15843     15846     15847     15843     15846     15848     15843     15846     15849
     15844     15843     15845     15844     15843     15846     15845     15843     15846
     15846     15849     15850     15846     15849     15851     15846     15849     15852
     15847     15846     15848     15847     15846     15849     15848     15846     15849
     15849     15852     15853     15849     15852     15854     15849     15852     15855
     15850     15849     15851     15850     15849     15852     15851     15849     15852
     15853     15852     15854     15853     15852     15855     15854     15852     15855
     15856     15859     15860     15856     15859     15861     15856     15859     15862
     15857     15856     15858     15857     15856     15859     15858     15856     15859
     15859     15862     15863     15859     15862     15864     15859     15862     15865
     15860     15859     15861     15860     15859     15862     15861     15859     15862
     15862     15865     15866     15862     15865     15867     15862     15865     15868
     15863     15862     15864     15863     15862     15865     15864     15862     15865
     15865     15868     15869     15865     15868     15870     15865     15868     15871
     15866     15865     15867     15866     15865     15868     15867     15865     15868
     15868     15871     15872     15868     15871     15873     15868     15871     15874
     15869     15868     15870     15869     15868     15871     15870     15868     15871
     15871     15874     15875     15871     15874     15876     15871     15874     15877
     15872     15871     15873     15872     15871     15874     15873     15871     15874
     15874     15877     15878     15874     15877     15879     15874     15877     15880
     15875     15874     15876     15875     15874     15877     15876     15874     15877
     15877     15880     15881     15877     15880     15882     15877     15880     15883
     15878     15877     15879     15878     15877     15880     15879     15877     15880
     15880     15883     15884     15880     15883     15885     15880     15883     15886
     15881     15880     15882     15881     15880     15883     15882     15880     15883
     15883     15886     15887     15883     15886     15888     15883     15886     15889
     15884     15883     15885     15884     15883     15886     15885     15883     15886
     15886     15889     15890     15886     15889     15891     15886     15889     15892
     15887     15886     15888     15887     15886     15889     15888     15886     15889
     15889     15892     15893     15889     15892     15894     15889     15892     15895
     15890     15889     15891     15890     15889     15892     15891     15889     15892
     15892     15895     15896     15892     15895     15897     15892     15895     15898
     15893     15892     15894     15893     15892     15895     15894     15892     15895
     15896     15895     15897     15896     15895     15898     15897     15895     15898
     15899     15900     15901     15899     15900     15902     15899     15900     15915
     15899     15903     15904     15899     15903     15905     15899     15903     15906
     15899     15907     15908     15899     15907     15909     15899     15907     15910
     15899     15911     15912     15899     15911     15913     15899     15911     15914
     15900     15899     15903     15900     15899     15907     15900     15899     15911
     15900     15915     15916     15900     15915     15917     15900     15915     15921
     15901     15900     15902     15901     15900     15915     15902     15900     15915
     15903     15899     15907     15903     15899     15911     15904     15903     15905
     15904     15903     15906     15905     15903     15906     15907     15899     15911
     15908     15907     15909     15908     15907     15910     15909     15907     15910
     15912     15911     15913     15912     15911     15914     15913     15911     15914
     15915     15921     15918     15916     15915     15917     15916     15915     15921
     15917     15915     15921     15918     15922     15923     15919     15918     15920
     15919     15918     15921     15919     15918     15922     15920     15918     15921
     15920     15918     15922     15921     15918     15922     15922     15923     15924
     15922     15923     15925     15922     15923     15926     15923     15926     15927
     15923     15926     15928     15923     15926     15934     15924     15923     15925
     15924     15923     15926     15925     15923     15926     15926     15928     15929
     15926     15934     15935     15926     15934     15936     15926     15934     15937
     15927     15926     15928     15927     15926     15934     15928     15926     15934
     15928     15929     15930     15928     15929     15931     15929     15931     15932
     15929     15931     15933     15929     15931     15943     15930     15929     15931
     15931     15943     15944     15931     15943     15945     15931     15943     15946
     15932     15931     15933     15932     15931     15943     15933     15931     15943
     15934     15937     15938     15935     15934     15936     15935     15934     15937
     15936     15934     15937     15937     15938     15939     15937     15938     15940
     15938     15940     15941     15938     15940     15942     15938     15940     15990
     15939     15938     15940     15940     15990     15991     15940     15990     15992
     15940     15990     15993     15941     15940     15942     15941     15940     15990
     15942     15940     15990     15943     15946     15947     15943     15946     15948
     15943     15946     15949     15944     15943     15945     15944     15943     15946
     15945     15943     15946     15946     15949     15950     15946     15949     15951
     15946     15949     15952     15947     15946     15948     15947     15946     15949
     15948     15946     15949     15949     15952     15953     15949     15952     15954
     15949     15952     15955     15950     15949     15951     15950     15949     15952
     15951     15949     15952     15952     15955     15956     15952     15955     15957
     15952     15955     15958     15953     15952     15954     15953     15952     15955
     15954     15952     15955     15955     15958     15959     15955     15958     15960
     15955     15958     15961     15956     15955     15957     15956     15955     15958
     15957     15955     15958     15958     15961     15962     15958     15961     15963
     15959     15958     15960     15959     15958     15961     15960     15958     15961
     15961     15963     15964     15961     15963     15965     15962     15961     15963
     15963     15965     15966     15963     15965     15967     15963     15965     15968
     15964     15963     15965     15965     15968     15969     15965     15968     15970
     15965     15968     15971     15966     15965     15967     15966     15965     15968
     15967     15965     15968     15968     15971     15972     15968     15971     15973
     15968     15971     15974     15969     15968     15970     15969     15968     15971
     15970     15968     15971     15971     15974     15975     15971     15974     15976
     15971     15974     15977     15972     15971     15973     15972     15971     15974
     15973     15971     15974     15974     15977     15978     15974     15977     15979
     15974     15977     15980     15975     15974     15976     15975     15974     15977
     15976     15974     15977     15977     15980     15981     15977     15980     15982
     15977     15980     15983     15978     15977     15979     15978     15977     15980
     15979     15977     15980     15980     15983     15984     15980     15983     15985
     15980     15983     15986     15981     15980     15982     15981     15980     15983
     15982     15980     15983     15983     15986     15987     15983     15986     15988
     15983     15986     15989     15984     15983     15985     15984     15983     15986
     15985     15983     15986     15987     15986     15988     15987     15986     15989
     15988     15986     15989     15990     15993     15994     15990     15993     15995
     15990     15993     15996     15991     15990     15992     15991     15990     15993
     15992     15990     15993     15993     15996     15997     15993     15996     15998
     15993     15996     15999     15994     15993     15995     15994     15993     15996
     15995     15993     15996     15996     15999     16000     15996     15999     16001
     15996     15999     16002     15997     15996     15998     15997     15996     15999
     15998     15996     15999     15999     16002     16003     15999     16002     16004
     15999     16002     16005     16000     15999     16001     16000     15999     16002
     16001     15999     16002     16002     16005     16006     16002     16005     16007
     16002     16005     16008     16003     16002     16004     16003     16002     16005
     16004     16002     16005     16005     16008     16009     16005     16008     16010
     16005     16008     16011     16006     16005     16007     16006     16005     16008
     16007     16005     16008     16008     16011     16012     16008     16011     16013
     16008     16011     16014     16009     16008     16010     16009     16008     16011
     16010     16008     16011     16011     16014     16015     16011     16014     16016
     16011     16014     16017     16012     16011     16013     16012     16011     16014
     16013     16011     16014     16014     16017     16018     16014     16017     16019
     16014     16017     16020     16015     16014     16016     16015     16014     16017
     16016     16014     16017     16017     16020     16021     16017     16020     16022
     16017     16020     16023     16018     16017     16019     16018     16017     16020
     16019     16017     16020     16020     16023     16024     16020     16023     16025
     16020     16023     16026     16021     16020     16022     16021     16020     16023
     16022     16020     16023     16023     16026     16027     16023     16026     16028
     16023     16026     16029     16024     16023     16025     16024     16023     16026
     16025     16023     16026     16026     16029     16030     16026     16029     16031
     16026     16029     16032     16027     16026     16028     16027     16026     16029
     16028     16026     16029     16030     16029     16031     16030     16029     16032
     16031     16029     16032     16033     16034     16035     16033     16034     16036
     16033     16034     16049     16033     16037     16038     16033     16037     16039
     16033     16037     16040     16033     16041     16042     16033     16041     16043
     16033     16041     16044     16033     16045     16046     16033     16045     16047
     16033     16045     16048     16034     16033     16037     16034     16033     16041
     16034     16033     16045     16034     16049     16050     16034     16049     16051
     16034     16049     16055     16035     16034     16036     16035     16034     16049
     16036     16034     16049     16037     16033     16041     16037     16033     16045
     16038     16037     16039     16038     16037     16040     16039     16037     16040
     16041     16033     16045     16042     16041     16043     16042     16041     16044
     16043     16041     16044     16046     16045     16047     16046     16045     16048
     16047     16045     16048     16049     16055     16052     16050     16049     16051
     16050     16049     16055     16051     16049     16055     16052     16056     16057
     16053     16052     16054     16053     16052     16055     16053     16052     16056
     16054     16052     16055     16054     16052     16056     16055     16052     16056
     16056     16057     16058     16056     16057     16059     16056     16057     16060
     16057     16060     16061     16057     16060     16062     16057     16060     16068
     16058     16057     16059     16058     16057     16060     16059     16057     16060
     16060     16062     16063     16060     16068     16069     16060     16068     16070
     16060     16068     16071     16061     16060     16062     16061     16060     16068
     16062     16060     16068     16062     16063     16064     16062     16063     16065
     16063     16065     16066     16063     16065     16067     16063     16065     16077
     16064     16063     16065     16065     16077     16078     16065     16077     16079
     16065     16077     16080     16066     16065     16067     16066     16065     16077
     16067     16065     16077     16068     16071     16072     16069     16068     16070
     16069     16068     16071     16070     16068     16071     16071     16072     16073
     16071     16072     16074     16072     16074     16075     16072     16074     16076
     16072     16074     16124     16073     16072     16074     16074     16124     16125
     16074     16124     16126     16074     16124     16127     16075     16074     16076
     16075     16074     16124     16076     16074     16124     16077     16080     16081
     16077     16080     16082     16077     16080     16083     16078     16077     16079
     16078     16077     16080     16079     16077     16080     16080     16083     16084
     16080     16083     16085     16080     16083     16086     16081     16080     16082
     16081     16080     16083     16082     16080     16083     16083     16086     16087
     16083     16086     16088     16083     16086     16089     16084     16083     16085
     16084     16083     16086     16085     16083     16086     16086     16089     16090
     16086     16089     16091     16086     16089     16092     16087     16086     16088
     16087     16086     16089     16088     16086     16089     16089     16092     16093
     16089     16092     16094     16089     16092     16095     16090     16089     16091
     16090     16089     16092     16091     16089     16092     16092     16095     16096
     16092     16095     16097     16093     16092     16094     16093     16092     16095
     16094     16092     16095     16095     16097     16098     16095     16097     16099
     16096     16095     16097     16097     16099     16100     16097     16099     16101
     16097     16099     16102     16098     16097     16099     16099     16102     16103
     16099     16102     16104     16099     16102     16105     16100     16099     16101
     16100     16099     16102     16101     16099     16102     16102     16105     16106
     16102     16105     16107     16102     16105     16108     16103     16102     16104
     16103     16102     16105     16104     16102     16105     16105     16108     16109
     16105     16108     16110     16105     16108     16111     16106     16105     16107
     16106     16105     16108     16107     16105     16108     16108     16111     16112
     16108     16111     16113     16108     16111     16114     16109     16108     16110
     16109     16108     16111     16110     16108     16111     16111     16114     16115
     16111     16114     16116     16111     16114     16117     16112     16111     16113
     16112     16111     16114     16113     16111     16114     16114     16117     16118
     16114     16117     16119     16114     16117     16120     16115     16114     16116
     16115     16114     16117     16116     16114     16117     16117     16120     16121
     16117     16120     16122     16117     16120     16123     16118     16117     16119
     16118     16117     16120     16119     16117     16120     16121     16120     16122
     16121     16120     16123     16122     16120     16123     16124     16127     16128
     16124     16127     16129     16124     16127     16130     16125     16124     16126
     16125     16124     16127     16126     16124     16127     16127     16130     16131
     16127     16130     16132     16127     16130     16133     16128     16127     16129
     16128     16127     16130     16129     16127     16130     16130     16133     16134
     16130     16133     16135     16130     16133     16136     16131     16130     16132
     16131     16130     16133     16132     16130     16133     16133     16136     16137
     16133     16136     16138     16133     16136     16139     16134     16133     16135
     16134     16133     16136     16135     16133     16136     16136     16139     16140
     16136     16139     16141     16136     16139     16142     16137     16136     16138
     16137     16136     16139     16138     16136     16139     16139     16142     16143
     16139     16142     16144     16139     16142     16145     16140     16139     16141
     16140     16139     16142     16141     16139     16142     16142     16145     16146
     16142     16145     16147     16142     16145     16148     16143     16142     16144
     16143     16142     16145     16144     16142     16145     16145     16148     16149
     16145     16148     16150     16145     16148     16151     16146     16145     16147
     16146     16145     16148     16147     16145     16148     16148     16151     16152
     16148     16151     16153     16148     16151     16154     16149     16148     16150
     16149     16148     16151     16150     16148     16151     16151     16154     16155
     16151     16154     16156     16151     16154     16157     16152     16151     16153
     16152     16151     16154     16153     16151     16154     16154     16157     16158
     16154     16157     16159     16154     16157     16160     16155     16154     16156
     16155     16154     16157     16156     16154     16157     16157     16160     16161
     16157     16160     16162     16157     16160     16163     16158     16157     16159
     16158     16157     16160     16159     16157     16160     16160     16163     16164
     16160     16163     16165     16160     16163     16166     16161     16160     16162
     16161     16160     16163     16162     16160     16163     16164     16163     16165
     16164     16163     16166     16165     16163     16166     16167     16168     16169
     16167     16168     16170     16167     16168     16183     16167     16171     16172
     16167     16171     16173     16167     16171     16174     16167     16175     16176
     16167     16175     16177     16167     16175     16178     16167     16179     16180
     16167     16179     16181     16167     16179     16182     16168     16167     16171
     16168     16167     16175     16168     16167     16179     16168     16183     16184
     16168     16183     16185     16168     16183     16189     16169     16168     16170
     16169     16168     16183     16170     16168     16183     16171     16167     16175
     16171     16167     16179     16172     16171     16173     16172     16171     16174
     16173     16171     16174     16175     16167     16179     16176     16175     16177
     16176     16175     16178     16177     16175     16178     16180     16179     16181
     16180     16179     16182     16181     16179     16182     16183     16189     16186
     16184     16183     16185     16184     16183     16189     16185     16183     16189
     16186     16190     16191     16187     16186     16188     16187     16186     16189
     16187     16186     16190     16188     16186     16189     16188     16186     16190
     16189     16186     16190     16190     16191     16192     16190     16191     16193
     16190     16191     16194     16191     16194     16195     16191     16194     16196
     16191     16194     16202     16192     16191     16193     16192     16191     16194
     16193     16191     16194     16194     16196     16197     16194     16202     16203
     16194     16202     16204     16194     16202     16205     16195     16194     16196
     16195     16194     16202     16196     16194     16202     16196     16197     16198
     16196     16197     16199     16197     16199     16200     16197     16199     16201
     16197     16199     16211     16198     16197     16199     16199     16211     16212
     16199     16211     16213     16199     16211     16214     16200     16199     16201
     16200     16199     16211     16201     16199     16211     16202     16205     16206
     16203     16202     16204     16203     16202     16205     16204     16202     16205
     16205     16206     16207     16205     16206     16208     16206     16208     16209
     16206     16208     16210     16206     16208     16258     16207     16206     16208
     16208     16258     16259     16208     16258     16260     16208     16258     16261
     16209     16208     16210     16209     16208     16258     16210     16208     16258
     16211     16214     16215     16211     16214     16216     16211     16214     16217
     16212     16211     16213     16212     16211     16214     16213     16211     16214
     16214     16217     16218     16214     16217     16219     16214     16217     16220
     16215     16214     16216     16215     16214     16217     16216     16214     16217
     16217     16220     16221     16217     16220     16222     16217     16220     16223
     16218     16217     16219     16218     16217     16220     16219     16217     16220
     16220     16223     16224     16220     16223     16225     16220     16223     16226
     16221     16220     16222     16221     16220     16223     16222     16220     16223
     16223     16226     16227     16223     16226     16228     16223     16226     16229
     16224     16223     16225     16224     16223     16226     16225     16223     16226
     16226     16229     16230     16226     16229     16231     16227     16226     16228
     16227     16226     16229     16228     16226     16229     16229     16231     16232
     16229     16231     16233     16230     16229     16231     16231     16233     16234
     16231     16233     16235     16231     16233     16236     16232     16231     16233
     16233     16236     16237     16233     16236     16238     16233     16236     16239
     16234     16233     16235     16234     16233     16236     16235     16233     16236
     16236     16239     16240     16236     16239     16241     16236     16239     16242
     16237     16236     16238     16237     16236     16239     16238     16236     16239
     16239     16242     16243     16239     16242     16244     16239     16242     16245
     16240     16239     16241     16240     16239     16242     16241     16239     16242
     16242     16245     16246     16242     16245     16247     16242     16245     16248
     16243     16242     16244     16243     16242     16245     16244     16242     16245
     16245     16248     16249     16245     16248     16250     16245     16248     16251
     16246     16245     16247     16246     16245     16248     16247     16245     16248
     16248     16251     16252     16248     16251     16253     16248     16251     16254
     16249     16248     16250     16249     16248     16251     16250     16248     16251
     16251     16254     16255     16251     16254     16256     16251     16254     16257
     16252     16251     16253     16252     16251     16254     16253     16251     16254
     16255     16254     16256     16255     16254     16257     16256     16254     16257
     16258     16261     16262     16258     16261     16263     16258     16261     16264
     16259     16258     16260     16259     16258     16261     16260     16258     16261
     16261     16264     16265     16261     16264     16266     16261     16264     16267
     16262     16261     16263     16262     16261     16264     16263     16261     16264
     16264     16267     16268     16264     16267     16269     16264     16267     16270
     16265     16264     16266     16265     16264     16267     16266     16264     16267
     16267     16270     16271     16267     16270     16272     16267     16270     16273
     16268     16267     16269     16268     16267     16270     16269     16267     16270
     16270     16273     16274     16270     16273     16275     16270     16273     16276
     16271     16270     16272     16271     16270     16273     16272     16270     16273
     16273     16276     16277     16273     16276     16278     16273     16276     16279
     16274     16273     16275     16274     16273     16276     16275     16273     16276
     16276     16279     16280     16276     16279     16281     16276     16279     16282
     16277     16276     16278     16277     16276     16279     16278     16276     16279
     16279     16282     16283     16279     16282     16284     16279     16282     16285
     16280     16279     16281     16280     16279     16282     16281     16279     16282
     16282     16285     16286     16282     16285     16287     16282     16285     16288
     16283     16282     16284     16283     16282     16285     16284     16282     16285
     16285     16288     16289     16285     16288     16290     16285     16288     16291
     16286     16285     16287     16286     16285     16288     16287     16285     16288
     16288     16291     16292     16288     16291     16293     16288     16291     16294
     16289     16288     16290     16289     16288     16291     16290     16288     16291
     16291     16294     16295     16291     16294     16296     16291     16294     16297
     16292     16291     16293     16292     16291     16294     16293     16291     16294
     16294     16297     16298     16294     16297     16299     16294     16297     16300
     16295     16294     16296     16295     16294     16297     16296     16294     16297
     16298     16297     16299     16298     16297     16300     16299     16297     16300
     16301     16302     16303     16301     16302     16304     16301     16302     16317
     16301     16305     16306     16301     16305     16307     16301     16305     16308
     16301     16309     16310     16301     16309     16311     16301     16309     16312
     16301     16313     16314     16301     16313     16315     16301     16313     16316
     16302     16301     16305     16302     16301     16309     16302     16301     16313
     16302     16317     16318     16302     16317     16319     16302     16317     16323
     16303     16302     16304     16303     16302     16317     16304     16302     16317
     16305     16301     16309     16305     16301     16313     16306     16305     16307
     16306     16305     16308     16307     16305     16308     16309     16301     16313
     16310     16309     16311     16310     16309     16312     16311     16309     16312
     16314     16313     16315     16314     16313     16316     16315     16313     16316
     16317     16323     16320     16318     16317     16319     16318     16317     16323
     16319     16317     16323     16320     16324     16325     16321     16320     16322
     16321     16320     16323     16321     16320     16324     16322     16320     16323
     16322     16320     16324     16323     16320     16324     16324     16325     16326
     16324     16325     16327     16324     16325     16328     16325     16328     16329
     16325     16328     16330     16325     16328     16336     16326     16325     16327
     16326     16325     16328     16327     16325     16328     16328     16330     16331
     16328     16336     16337     16328     16336     16338     16328     16336     16339
     16329     16328     16330     16329     16328     16336     16330     16328     16336
     16330     16331     16332     16330     16331     16333     16331     16333     16334
     16331     16333     16335     16331     16333     16345     16332     16331     16333
     16333     16345     16346     16333     16345     16347     16333     16345     16348
     16334     16333     16335     16334     16333     16345     16335     16333     16345
     16336     16339     16340     16337     16336     16338     16337     16336     16339
     16338     16336     16339     16339     16340     16341     16339     16340     16342
     16340     16342     16343     16340     16342     16344     16340     16342     16392
     16341     16340     16342     16342     16392     16393     16342     16392     16394
     16342     16392     16395     16343     16342     16344     16343     16342     16392
     16344     16342     16392     16345     16348     16349     16345     16348     16350
     16345     16348     16351     16346     16345     16347     16346     16345     16348
     16347     16345     16348     16348     16351     16352     16348     16351     16353
     16348     16351     16354     16349     16348     16350     16349     16348     16351
     16350     16348     16351     16351     16354     16355     16351     16354     16356
     16351     16354     16357     16352     16351     16353     16352     16351     16354
     16353     16351     16354     16354     16357     16358     16354     16357     16359
     16354     16357     16360     16355     16354     16356     16355     16354     16357
     16356     16354     16357     16357     16360     16361     16357     16360     16362
     16357     16360     16363     16358     16357     16359     16358     16357     16360
     16359     16357     16360     16360     16363     16364     16360     16363     16365
     16361     16360     16362     16361     16360     16363     16362     16360     16363
     16363     16365     16366     16363     16365     16367     16364     16363     16365
     16365     16367     16368     16365     16367     16369     16365     16367     16370
     16366     16365     16367     16367     16370     16371     16367     16370     16372
     16367     16370     16373     16368     16367     16369     16368     16367     16370
     16369     16367     16370     16370     16373     16374     16370     16373     16375
     16370     16373     16376     16371     16370     16372     16371     16370     16373
     16372     16370     16373     16373     16376     16377     16373     16376     16378
     16373     16376     16379     16374     16373     16375     16374     16373     16376
     16375     16373     16376     16376     16379     16380     16376     16379     16381
     16376     16379     16382     16377     16376     16378     16377     16376     16379
     16378     16376     16379     16379     16382     16383     16379     16382     16384
     16379     16382     16385     16380     16379     16381     16380     16379     16382
     16381     16379     16382     16382     16385     16386     16382     16385     16387
     16382     16385     16388     16383     16382     16384     16383     16382     16385
     16384     16382     16385     16385     16388     16389     16385     16388     16390
     16385     16388     16391     16386     16385     16387     16386     16385     16388
     16387     16385     16388     16389     16388     16390     16389     16388     16391
     16390     16388     16391     16392     16395     16396     16392     16395     16397
     16392     16395     16398     16393     16392     16394     16393     16392     16395
     16394     16392     16395     16395     16398     16399     16395     16398     16400
     16395     16398     16401     16396     16395     16397     16396     16395     16398
     16397     16395     16398     16398     16401     16402     16398     16401     16403
     16398     16401     16404     16399     16398     16400     16399     16398     16401
     16400     16398     16401     16401     16404     16405     16401     16404     16406
     16401     16404     16407     16402     16401     16403     16402     16401     16404
     16403     16401     16404     16404     16407     16408     16404     16407     16409
     16404     16407     16410     16405     16404     16406     16405     16404     16407
     16406     16404     16407     16407     16410     16411     16407     16410     16412
     16407     16410     16413     16408     16407     16409     16408     16407     16410
     16409     16407     16410     16410     16413     16414     16410     16413     16415
     16410     16413     16416     16411     16410     16412     16411     16410     16413
     16412     16410     16413     16413     16416     16417     16413     16416     16418
     16413     16416     16419     16414     16413     16415     16414     16413     16416
     16415     16413     16416     16416     16419     16420     16416     16419     16421
     16416     16419     16422     16417     16416     16418     16417     16416     16419
     16418     16416     16419     16419     16422     16423     16419     16422     16424
     16419     16422     16425     16420     16419     16421     16420     16419     16422
     16421     16419     16422     16422     16425     16426     16422     16425     16427
     16422     16425     16428     16423     16422     16424     16423     16422     16425
     16424     16422     16425     16425     16428     16429     16425     16428     16430
     16425     16428     16431     16426     16425     16427     16426     16425     16428
     16427     16425     16428     16428     16431     16432     16428     16431     16433
     16428     16431     16434     16429     16428     16430     16429     16428     16431
     16430     16428     16431     16432     16431     16433     16432     16431     16434
     16433     16431     16434     16435     16436     16437     16435     16436     16438
     16435     16436     16451     16435     16439     16440     16435     16439     16441
     16435     16439     16442     16435     16443     16444     16435     16443     16445
     16435     16443     16446     16435     16447     16448     16435     16447     16449
     16435     16447     16450     16436     16435     16439     16436     16435     16443
     16436     16435     16447     16436     16451     16452     16436     16451     16453
     16436     16451     16457     16437     16436     16438     16437     16436     16451
     16438     16436     16451     16439     16435     16443     16439     16435     16447
     16440     16439     16441     16440     16439     16442     16441     16439     16442
     16443     16435     16447     16444     16443     16445     16444     16443     16446
     16445     16443     16446     16448     16447     16449     16448     16447     16450
     16449     16447     16450     16451     16457     16454     16452     16451     16453
     16452     16451     16457     16453     16451     16457     16454     16458     16459
     16455     16454     16456     16455     16454     16457     16455     16454     16458
     16456     16454     16457     16456     16454     16458     16457     16454     16458
     16458     16459     16460     16458     16459     16461     16458     16459     16462
     16459     16462     16463     16459     16462     16464     16459     16462     16470
     16460     16459     16461     16460     16459     16462     16461     16459     16462
     16462     16464     16465     16462     16470     16471     16462     16470     16472
     16462     16470     16473     16463     16462     16464     16463     16462     16470
     16464     16462     16470     16464     16465     16466     16464     16465     16467
     16465     16467     16468     16465     16467     16469     16465     16467     16479
     16466     16465     16467     16467     16479     16480     16467     16479     16481
     16467     16479     16482     16468     16467     16469     16468     16467     16479
     16469     16467     16479     16470     16473     16474     16471     16470     16472
     16471     16470     16473     16472     16470     16473     16473     16474     16475
     16473     16474     16476     16474     16476     16477     16474     16476     16478
     16474     16476     16526     16475     16474     16476     16476     16526     16527
     16476     16526     16528     16476     16526     16529     16477     16476     16478
     16477     16476     16526     16478     16476     16526     16479     16482     16483
     16479     16482     16484     16479     16482     16485     16480     16479     16481
     16480     16479     16482     16481     16479     16482     16482     16485     16486
     16482     16485     16487     16482     16485     16488     16483     16482     16484
     16483     16482     16485     16484     16482     16485     16485     16488     16489
     16485     16488     16490     16485     16488     16491     16486     16485     16487
     16486     16485     16488     16487     16485     16488     16488     16491     16492
     16488     16491     16493     16488     16491     16494     16489     16488     16490
     16489     16488     16491     16490     16488     16491     16491     16494     16495
     16491     16494     16496     16491     16494     16497     16492     16491     16493
     16492     16491     16494     16493     16491     16494     16494     16497     16498
     16494     16497     16499     16495     16494     16496     16495     16494     16497
     16496     16494     16497     16497     16499     16500     16497     16499     16501
     16498     16497     16499     16499     16501     16502     16499     16501     16503
     16499     16501     16504     16500     16499     16501     16501     16504     16505
     16501     16504     16506     16501     16504     16507     16502     16501     16503
     16502     16501     16504     16503     16501     16504     16504     16507     16508
     16504     16507     16509     16504     16507     16510     16505     16504     16506
     16505     16504     16507     16506     16504     16507     16507     16510     16511
     16507     16510     16512     16507     16510     16513     16508     16507     16509
     16508     16507     16510     16509     16507     16510     16510     16513     16514
     16510     16513     16515     16510     16513     16516     16511     16510     16512
     16511     16510     16513     16512     16510     16513     16513     16516     16517
     16513     16516     16518     16513     16516     16519     16514     16513     16515
     16514     16513     16516     16515     16513     16516     16516     16519     16520
     16516     16519     16521     16516     16519     16522     16517     16516     16518
     16517     16516     16519     16518     16516     16519     16519     16522     16523
     16519     16522     16524     16519     16522     16525     16520     16519     16521
     16520     16519     16522     16521     16519     16522     16523     16522     16524
     16523     16522     16525     16524     16522     16525     16526     16529     16530
     16526     16529     16531     16526     16529     16532     16527     16526     16528
     16527     16526     16529     16528     16526     16529     16529     16532     16533
     16529     16532     16534     16529     16532     16535     16530     16529     16531
     16530     16529     16532     16531     16529     16532     16532     16535     16536
     16532     16535     16537     16532     16535     16538     16533     16532     16534
     16533     16532     16535     16534     16532     16535     16535     16538     16539
     16535     16538     16540     16535     16538     16541     16536     16535     16537
     16536     16535     16538     16537     16535     16538     16538     16541     16542
     16538     16541     16543     16538     16541     16544     16539     16538     16540
     16539     16538     16541     16540     16538     16541     16541     16544     16545
     16541     16544     16546     16541     16544     16547     16542     16541     16543
     16542     16541     16544     16543     16541     16544     16544     16547     16548
     16544     16547     16549     16544     16547     16550     16545     16544     16546
     16545     16544     16547     16546     16544     16547     16547     16550     16551
     16547     16550     16552     16547     16550     16553     16548     16547     16549
     16548     16547     16550     16549     16547     16550     16550     16553     16554
     16550     16553     16555     16550     16553     16556     16551     16550     16552
     16551     16550     16553     16552     16550     16553     16553     16556     16557
     16553     16556     16558     16553     16556     16559     16554     16553     16555
     16554     16553     16556     16555     16553     16556     16556     16559     16560
     16556     16559     16561     16556     16559     16562     16557     16556     16558
     16557     16556     16559     16558     16556     16559     16559     16562     16563
     16559     16562     16564     16559     16562     16565     16560     16559     16561
     16560     16559     16562     16561     16559     16562     16562     16565     16566
     16562     16565     16567     16562     16565     16568     16563     16562     16564
     16563     16562     16565     16564     16562     16565     16566     16565     16567
     16566     16565     16568     16567     16565     16568     16569     16570     16571
     16569     16570     16572     16569     16570     16585     16569     16573     16574
     16569     16573     16575     16569     16573     16576     16569     16577     16578
     16569     16577     16579     16569     16577     16580     16569     16581     16582
     16569     16581     16583     16569     16581     16584     16570     16569     16573
     16570     16569     16577     16570     16569     16581     16570     16585     16586
     16570     16585     16587     16570     16585     16591     16571     16570     16572
     16571     16570     16585     16572     16570     16585     16573     16569     16577
     16573     16569     16581     16574     16573     16575     16574     16573     16576
     16575     16573     16576     16577     16569     16581     16578     16577     16579
     16578     16577     16580     16579     16577     16580     16582     16581     16583
     16582     16581     16584     16583     16581     16584     16585     16591     16588
     16586     16585     16587     16586     16585     16591     16587     16585     16591
     16588     16592     16593     16589     16588     16590     16589     16588     16591
     16589     16588     16592     16590     16588     16591     16590     16588     16592
     16591     16588     16592     16592     16593     16594     16592     16593     16595
     16592     16593     16596     16593     16596     16597     16593     16596     16598
     16593     16596     16604     16594     16593     16595     16594     16593     16596
     16595     16593     16596     16596     16598     16599     16596     16604     16605
     16596     16604     16606     16596     16604     16607     16597     16596     16598
     16597     16596     16604     16598     16596     16604     16598     16599     16600
     16598     16599     16601     16599     16601     16602     16599     16601     16603
     16599     16601     16613     16600     16599     16601     16601     16613     16614
     16601     16613     16615     16601     16613     16616     16602     16601     16603
     16602     16601     16613     16603     16601     16613     16604     16607     16608
     16605     16604     16606     16605     16604     16607     16606     16604     16607
     16607     16608     16609     16607     16608     16610     16608     16610     16611
     16608     16610     16612     16608     16610     16660     16609     16608     16610
     16610     16660     16661     16610     16660     16662     16610     16660     16663
     16611     16610     16612     16611     16610     16660     16612     16610     16660
     16613     16616     16617     16613     16616     16618     16613     16616     16619
     16614     16613     16615     16614     16613     16616     16615     16613     16616
     16616     16619     16620     16616     16619     16621     16616     16619     16622
     16617     16616     16618     16617     16616     16619     16618     16616     16619
     16619     16622     16623     16619     16622     16624     16619     16622     16625
     16620     16619     16621     16620     16619     16622     16621     16619     16622
     16622     16625     16626     16622     16625     16627     16622     16625     16628
     16623     16622     16624     16623     16622     16625     16624     16622     16625
     16625     16628     16629     16625     16628     16630     16625     16628     16631
     16626     16625     16627     16626     16625     16628     16627     16625     16628
     16628     16631     16632     16628     16631     16633     16629     16628     16630
     16629     16628     16631     16630     16628     16631     16631     16633     16634
     16631     16633     16635     16632     16631     16633     16633     16635     16636
     16633     16635     16637     16633     16635     16638     16634     16633     16635
     16635     16638     16639     16635     16638     16640     16635     16638     16641
     16636     16635     16637     16636     16635     16638     16637     16635     16638
     16638     16641     16642     16638     16641     16643     16638     16641     16644
     16639     16638     16640     16639     16638     16641     16640     16638     16641
     16641     16644     16645     16641     16644     16646     16641     16644     16647
     16642     16641     16643     16642     16641     16644     16643     16641     16644
     16644     16647     16648     16644     16647     16649     16644     16647     16650
     16645     16644     16646     16645     16644     16647     16646     16644     16647
     16647     16650     16651     16647     16650     16652     16647     16650     16653
     16648     16647     16649     16648     16647     16650     16649     16647     16650
     16650     16653     16654     16650     16653     16655     16650     16653     16656
     16651     16650     16652     16651     16650     16653     16652     16650     16653
     16653     16656     16657     16653     16656     16658     16653     16656     16659
     16654     16653     16655     16654     16653     16656     16655     16653     16656
     16657     16656     16658     16657     16656     16659     16658     16656     16659
     16660     16663     16664     16660     16663     16665     16660     16663     16666
     16661     16660     16662     16661     16660     16663     16662     16660     16663
     16663     16666     16667     16663     16666     16668     16663     16666     16669
     16664     16663     16665     16664     16663     16666     16665     16663     16666
     16666     16669     16670     16666     16669     16671     16666     16669     16672
     16667     16666     16668     16667     16666     16669     16668     16666     16669
     16669     16672     16673     16669     16672     16674     16669     16672     16675
     16670     16669     16671     16670     16669     16672     16671     16669     16672
     16672     16675     16676     16672     16675     16677     16672     16675     16678
     16673     16672     16674     16673     16672     16675     16674     16672     16675
     16675     16678     16679     16675     16678     16680     16675     16678     16681
     16676     16675     16677     16676     16675     16678     16677     16675     16678
     16678     16681     16682     16678     16681     16683     16678     16681     16684
     16679     16678     16680     16679     16678     16681     16680     16678     16681
     16681     16684     16685     16681     16684     16686     16681     16684     16687
     16682     16681     16683     16682     16681     16684     16683     16681     16684
     16684     16687     16688     16684     16687     16689     16684     16687     16690
     16685     16684     16686     16685     16684     16687     16686     16684     16687
     16687     16690     16691     16687     16690     16692     16687     16690     16693
     16688     16687     16689     16688     16687     16690     16689     16687     16690
     16690     16693     16694     16690     16693     16695     16690     16693     16696
     16691     16690     16692     16691     16690     16693     16692     16690     16693
     16693     16696     16697     16693     16696     16698     16693     16696     16699
     16694     16693     16695     16694     16693     16696     16695     16693     16696
     16696     16699     16700     16696     16699     16701     16696     16699     16702
     16697     16696     16698     16697     16696     16699     16698     16696     16699
     16700     16699     16701     16700     16699     16702     16701     16699     16702
     16703     16704     16705     16703     16704     16706     16703     16704     16719
     16703     16707     16708     16703     16707     16709     16703     16707     16710
     16703     16711     16712     16703     16711     16713     16703     16711     16714
     16703     16715     16716     16703     16715     16717     16703     16715     16718
     16704     16703     16707     16704     16703     16711     16704     16703     16715
     16704     16719     16720     16704     16719     16721     16704     16719     16725
     16705     16704     16706     16705     16704     16719     16706     16704     16719
     16707     16703     16711     16707     16703     16715     16708     16707     16709
     16708     16707     16710     16709     16707     16710     16711     16703     16715
     16712     16711     16713     16712     16711     16714     16713     16711     16714
     16716     16715     16717     16716     16715     16718     16717     16715     16718
     16719     16725     16722     16720     16719     16721     16720     16719     16725
     16721     16719     16725     16722     16726     16727     16723     16722     16724
     16723     16722     16725     16723     16722     16726     16724     16722     16725
     16724     16722     16726     16725     16722     16726     16726     16727     16728
     16726     16727     16729     16726     16727     16730     16727     16730     16731
     16727     16730     16732     16727     16730     16738     16728     16727     16729
     16728     16727     16730     16729     16727     16730     16730     16732     16733
     16730     16738     16739     16730     16738     16740     16730     16738     16741
     16731     16730     16732     16731     16730     16738     16732     16730     16738
     16732     16733     16734     16732     16733     16735     16733     16735     16736
     16733     16735     16737     16733     16735     16747     16734     16733     16735
     16735     16747     16748     16735     16747     16749     16735     16747     16750
     16736     16735     16737     16736     16735     16747     16737     16735     16747
     16738     16741     16742     16739     16738     16740     16739     16738     16741
     16740     16738     16741     16741     16742     16743     16741     16742     16744
     16742     16744     16745     16742     16744     16746     16742     16744     16794
     16743     16742     16744     16744     16794     16795     16744     16794     16796
     16744     16794     16797     16745     16744     16746     16745     16744     16794
     16746     16744     16794     16747     16750     16751     16747     16750     16752
     16747     16750     16753     16748     16747     16749     16748     16747     16750
     16749     16747     16750     16750     16753     16754     16750     16753     16755
     16750     16753     16756     16751     16750     16752     16751     16750     16753
     16752     16750     16753     16753     16756     16757     16753     16756     16758
     16753     16756     16759     16754     16753     16755     16754     16753     16756
     16755     16753     16756     16756     16759     16760     16756     16759     16761
     16756     16759     16762     16757     16756     16758     16757     16756     16759
     16758     16756     16759     16759     16762     16763     16759     16762     16764
     16759     16762     16765     16760     16759     16761     16760     16759     16762
     16761     16759     16762     16762     16765     16766     16762     16765     16767
     16763     16762     16764     16763     16762     16765     16764     16762     16765
     16765     16767     16768     16765     16767     16769     16766     16765     16767
     16767     16769     16770     16767     16769     16771     16767     16769     16772
     16768     16767     16769     16769     16772     16773     16769     16772     16774
     16769     16772     16775     16770     16769     16771     16770     16769     16772
     16771     16769     16772     16772     16775     16776     16772     16775     16777
     16772     16775     16778     16773     16772     16774     16773     16772     16775
     16774     16772     16775     16775     16778     16779     16775     16778     16780
     16775     16778     16781     16776     16775     16777     16776     16775     16778
     16777     16775     16778     16778     16781     16782     16778     16781     16783
     16778     16781     16784     16779     16778     16780     16779     16778     16781
     16780     16778     16781     16781     16784     16785     16781     16784     16786
     16781     16784     16787     16782     16781     16783     16782     16781     16784
     16783     16781     16784     16784     16787     16788     16784     16787     16789
     16784     16787     16790     16785     16784     16786     16785     16784     16787
     16786     16784     16787     16787     16790     16791     16787     16790     16792
     16787     16790     16793     16788     16787     16789     16788     16787     16790
     16789     16787     16790     16791     16790     16792     16791     16790     16793
     16792     16790     16793     16794     16797     16798     16794     16797     16799
     16794     16797     16800     16795     16794     16796     16795     16794     16797
     16796     16794     16797     16797     16800     16801     16797     16800     16802
     16797     16800     16803     16798     16797     16799     16798     16797     16800
     16799     16797     16800     16800     16803     16804     16800     16803     16805
     16800     16803     16806     16801     16800     16802     16801     16800     16803
     16802     16800     16803     16803     16806     16807     16803     16806     16808
     16803     16806     16809     16804     16803     16805     16804     16803     16806
     16805     16803     16806     16806     16809     16810     16806     16809     16811
     16806     16809     16812     16807     16806     16808     16807     16806     16809
     16808     16806     16809     16809     16812     16813     16809     16812     16814
     16809     16812     16815     16810     16809     16811     16810     16809     16812
     16811     16809     16812     16812     16815     16816     16812     16815     16817
     16812     16815     16818     16813     16812     16814     16813     16812     16815
     16814     16812     16815     16815     16818     16819     16815     16818     16820
     16815     16818     16821     16816     16815     16817     16816     16815     16818
     16817     16815     16818     16818     16821     16822     16818     16821     16823
     16818     16821     16824     16819     16818     16820     16819     16818     16821
     16820     16818     16821     16821     16824     16825     16821     16824     16826
     16821     16824     16827     16822     16821     16823     16822     16821     16824
     16823     16821     16824     16824     16827     16828     16824     16827     16829
     16824     16827     16830     16825     16824     16826     16825     16824     16827
     16826     16824     16827     16827     16830     16831     16827     16830     16832
     16827     16830     16833     16828     16827     16829     16828     16827     16830
     16829     16827     16830     16830     16833     16834     16830     16833     16835
     16830     16833     16836     16831     16830     16832     16831     16830     16833
     16832     16830     16833     16834     16833     16835     16834     16833     16836
     16835     16833     16836     16837     16838     16839     16837     16838     16840
     16837     16838     16853     16837     16841     16842     16837     16841     16843
     16837     16841     16844     16837     16845     16846     16837     16845     16847
     16837     16845     16848     16837     16849     16850     16837     16849     16851
     16837     16849     16852     16838     16837     16841     16838     16837     16845
     16838     16837     16849     16838     16853     16854     16838     16853     16855
     16838     16853     16859     16839     16838     16840     16839     16838     16853
     16840     16838     16853     16841     16837     16845     16841     16837     16849
     16842     16841     16843     16842     16841     16844     16843     16841     16844
     16845     16837     16849     16846     16845     16847     16846     16845     16848
     16847     16845     16848     16850     16849     16851     16850     16849     16852
     16851     16849     16852     16853     16859     16856     16854     16853     16855
     16854     16853     16859     16855     16853     16859     16856     16860     16861
     16857     16856     16858     16857     16856     16859     16857     16856     16860
     16858     16856     16859     16858     16856     16860     16859     16856     16860
     16860     16861     16862     16860     16861     16863     16860     16861     16864
     16861     16864     16865     16861     16864     16866     16861     16864     16872
     16862     16861     16863     16862     16861     16864     16863     16861     16864
     16864     16866     16867     16864     16872     16873     16864     16872     16874
     16864     16872     16875     16865     16864     16866     16865     16864     16872
     16866     16864     16872     16866     16867     16868     16866     16867     16869
     16867     16869     16870     16867     16869     16871     16867     16869     16881
     16868     16867     16869     16869     16881     16882     16869     16881     16883
     16869     16881     16884     16870     16869     16871     16870     16869     16881
     16871     16869     16881     16872     16875     16876     16873     16872     16874
     16873     16872     16875     16874     16872     16875     16875     16876     16877
     16875     16876     16878     16876     16878     16879     16876     16878     16880
     16876     16878     16928     16877     16876     16878     16878     16928     16929
     16878     16928     16930     16878     16928     16931     16879     16878     16880
     16879     16878     16928     16880     16878     16928     16881     16884     16885
     16881     16884     16886     16881     16884     16887     16882     16881     16883
     16882     16881     16884     16883     16881     16884     16884     16887     16888
     16884     16887     16889     16884     16887     16890     16885     16884     16886
     16885     16884     16887     16886     16884     16887     16887     16890     16891
     16887     16890     16892     16887     16890     16893     16888     16887     16889
     16888     16887     16890     16889     16887     16890     16890     16893     16894
     16890     16893     16895     16890     16893     16896     16891     16890     16892
     16891     16890     16893     16892     16890     16893     16893     16896     16897
     16893     16896     16898     16893     16896     16899     16894     16893     16895
     16894     16893     16896     16895     16893     16896     16896     16899     16900
     16896     16899     16901     16897     16896     16898     16897     16896     16899
     16898     16896     16899     16899     16901     16902     16899     16901     16903
     16900     16899     16901     16901     16903     16904     16901     16903     16905
     16901     16903     16906     16902     16901     16903     16903     16906     16907
     16903     16906     16908     16903     16906     16909     16904     16903     16905
     16904     16903     16906     16905     16903     16906     16906     16909     16910
     16906     16909     16911     16906     16909     16912     16907     16906     16908
     16907     16906     16909     16908     16906     16909     16909     16912     16913
     16909     16912     16914     16909     16912     16915     16910     16909     16911
     16910     16909     16912     16911     16909     16912     16912     16915     16916
     16912     16915     16917     16912     16915     16918     16913     16912     16914
     16913     16912     16915     16914     16912     16915     16915     16918     16919
     16915     16918     16920     16915     16918     16921     16916     16915     16917
     16916     16915     16918     16917     16915     16918     16918     16921     16922
     16918     16921     16923     16918     16921     16924     16919     16918     16920
     16919     16918     16921     16920     16918     16921     16921     16924     16925
     16921     16924     16926     16921     16924     16927     16922     16921     16923
     16922     16921     16924     16923     16921     16924     16925     16924     16926
     16925     16924     16927     16926     16924     16927     16928     16931     16932
     16928     16931     16933     16928     16931     16934     16929     16928     16930
     16929     16928     16931     16930     16928     16931     16931     16934     16935
     16931     16934     16936     16931     16934     16937     16932     16931     16933
     16932     16931     16934     16933     16931     16934     16934     16937     16938
     16934     16937     16939     16934     16937     16940     16935     16934     16936
     16935     16934     16937     16936     16934     16937     16937     16940     16941
     16937     16940     16942     16937     16940     16943     16938     16937     16939
     16938     16937     16940     16939     16937     16940     16940     16943     16944
     16940     16943     16945     16940     16943     16946     16941     16940     16942
     16941     16940     16943     16942     16940     16943     16943     16946     16947
     16943     16946     16948     16943     16946     16949     16944     16943     16945
     16944     16943     16946     16945     16943     16946     16946     16949     16950
     16946     16949     16951     16946     16949     16952     16947     16946     16948
     16947     16946     16949     16948     16946     16949     16949     16952     16953
     16949     16952     16954     16949     16952     16955     16950     16949     16951
     16950     16949     16952     16951     16949     16952     16952     16955     16956
     16952     16955     16957     16952     16955     16958     16953     16952     16954
     16953     16952     16955     16954     16952     16955     16955     16958     16959
     16955     16958     16960     16955     16958     16961     16956     16955     16957
     16956     16955     16958     16957     16955     16958     16958     16961     16962
     16958     16961     16963     16958     16961     16964     16959     16958     16960
     16959     16958     16961     16960     16958     16961     16961     16964     16965
     16961     16964     16966     16961     16964     16967     16962     16961     16963
     16962     16961     16964     16963     16961     16964     16964     16967     16968
     16964     16967     16969     16964     16967     16970     16965     16964     16966
     16965     16964     16967     16966     16964     16967     16968     16967     16969
     16968     16967     16970     16969     16967     16970     16971     16972     16973
     16971     16972     16974     16971     16972     16987     16971     16975     16976
     16971     16975     16977     16971     16975     16978     16971     16979     16980
     16971     16979     16981     16971     16979     16982     16971     16983     16984
     16971     16983     16985     16971     16983     16986     16972     16971     16975
     16972     16971     16979     16972     16971     16983     16972     16987     16988
     16972     16987     16989     16972     16987     16993     16973     16972     16974
     16973     16972     16987     16974     16972     16987     16975     16971     16979
     16975     16971     16983     16976     16975     16977     16976     16975     16978
     16977     16975     16978     16979     16971     16983     16980     16979     16981
     16980     16979     16982     16981     16979     16982     16984     16983     16985
     16984     16983     16986     16985     16983     16986     16987     16993     16990
     16988     16987     16989     16988     16987     16993     16989     16987     16993
     16990     16994     16995     16991     16990     16992     16991     16990     16993
     16991     16990     16994     16992     16990     16993     16992     16990     16994
     16993     16990     16994     16994     16995     16996     16994     16995     16997
     16994     16995     16998     16995     16998     16999     16995     16998     17000
     16995     16998     17006     16996     16995     16997     16996     16995     16998
     16997     16995     16998     16998     17000     17001     16998     17006     17007
     16998     17006     17008     16998     17006     17009     16999     16998     17000
     16999     16998     17006     17000     16998     17006     17000     17001     17002
     17000     17001     17003     17001     17003     17004     17001     17003     17005
     17001     17003     17015     17002     17001     17003     17003     17015     17016
     17003     17015     17017     17003     17015     17018     17004     17003     17005
     17004     17003     17015     17005     17003     17015     17006     17009     17010
     17007     17006     17008     17007     17006     17009     17008     17006     17009
     17009     17010     17011     17009     17010     17012     17010     17012     17013
     17010     17012     17014     17010     17012     17062     17011     17010     17012
     17012     17062     17063     17012     17062     17064     17012     17062     17065
     17013     17012     17014     17013     17012     17062     17014     17012     17062
     17015     17018     17019     17015     17018     17020     17015     17018     17021
     17016     17015     17017     17016     17015     17018     17017     17015     17018
     17018     17021     17022     17018     17021     17023     17018     17021     17024
     17019     17018     17020     17019     17018     17021     17020     17018     17021
     17021     17024     17025     17021     17024     17026     17021     17024     17027
     17022     17021     17023     17022     17021     17024     17023     17021     17024
     17024     17027     17028     17024     17027     17029     17024     17027     17030
     17025     17024     17026     17025     17024     17027     17026     17024     17027
     17027     17030     17031     17027     17030     17032     17027     17030     17033
     17028     17027     17029     17028     17027     17030     17029     17027     17030
     17030     17033     17034     17030     17033     17035     17031     17030     17032
     17031     17030     17033     17032     17030     17033     17033     17035     17036
     17033     17035     17037     17034     17033     17035     17035     17037     17038
     17035     17037     17039     17035     17037     17040     17036     17035     17037
     17037     17040     17041     17037     17040     17042     17037     17040     17043
     17038     17037     17039     17038     17037     17040     17039     17037     17040
     17040     17043     17044     17040     17043     17045     17040     17043     17046
     17041     17040     17042     17041     17040     17043     17042     17040     17043
     17043     17046     17047     17043     17046     17048     17043     17046     17049
     17044     17043     17045     17044     17043     17046     17045     17043     17046
     17046     17049     17050     17046     17049     17051     17046     17049     17052
     17047     17046     17048     17047     17046     17049     17048     17046     17049
     17049     17052     17053     17049     17052     17054     17049     17052     17055
     17050     17049     17051     17050     17049     17052     17051     17049     17052
     17052     17055     17056     17052     17055     17057     17052     17055     17058
     17053     17052     17054     17053     17052     17055     17054     17052     17055
     17055     17058     17059     17055     17058     17060     17055     17058     17061
     17056     17055     17057     17056     17055     17058     17057     17055     17058
     17059     17058     17060     17059     17058     17061     17060     17058     17061
     17062     17065     17066     17062     17065     17067     17062     17065     17068
     17063     17062     17064     17063     17062     17065     17064     17062     17065
     17065     17068     17069     17065     17068     17070     17065     17068     17071
     17066     17065     17067     17066     17065     17068     17067     17065     17068
     17068     17071     17072     17068     17071     17073     17068     17071     17074
     17069     17068     17070     17069     17068     17071     17070     17068     17071
     17071     17074     17075     17071     17074     17076     17071     17074     17077
     17072     17071     17073     17072     17071     17074     17073     17071     17074
     17074     17077     17078     17074     17077     17079     17074     17077     17080
     17075     17074     17076     17075     17074     17077     17076     17074     17077
     17077     17080     17081     17077     17080     17082     17077     17080     17083
     17078     17077     17079     17078     17077     17080     17079     17077     17080
     17080     17083     17084     17080     17083     17085     17080     17083     17086
     17081     17080     17082     17081     17080     17083     17082     17080     17083
     17083     17086     17087     17083     17086     17088     17083     17086     17089
     17084     17083     17085     17084     17083     17086     17085     17083     17086
     17086     17089     17090     17086     17089     17091     17086     17089     17092
     17087     17086     17088     17087     17086     17089     17088     17086     17089
     17089     17092     17093     17089     17092     17094     17089     17092     17095
     17090     17089     17091     17090     17089     17092     17091     17089     17092
     17092     17095     17096     17092     17095     17097     17092     17095     17098
     17093     17092     17094     17093     17092     17095     17094     17092     17095
     17095     17098     17099     17095     17098     17100     17095     17098     17101
     17096     17095     17097     17096     17095     17098     17097     17095     17098
     17098     17101     17102     17098     17101     17103     17098     17101     17104
     17099     17098     17100     17099     17098     17101     17100     17098     17101
     17102     17101     17103     17102     17101     17104     17103     17101     17104
     17105     17106     17107     17105     17106     17108     17105     17106     17121
     17105     17109     17110     17105     17109     17111     17105     17109     17112
     17105     17113     17114     17105     17113     17115     17105     17113     17116
     17105     17117     17118     17105     17117     17119     17105     17117     17120
     17106     17105     17109     17106     17105     17113     17106     17105     17117
     17106     17121     17122     17106     17121     17123     17106     17121     17127
     17107     17106     17108     17107     17106     17121     17108     17106     17121
     17109     17105     17113     17109     17105     17117     17110     17109     17111
     17110     17109     17112     17111     17109     17112     17113     17105     17117
     17114     17113     17115     17114     17113     17116     17115     17113     17116
     17118     17117     17119     17118     17117     17120     17119     17117     17120
     17121     17127     17124     17122     17121     17123     17122     17121     17127
     17123     17121     17127     17124     17128     17129     17125     17124     17126
     17125     17124     17127     17125     17124     17128     17126     17124     17127
     17126     17124     17128     17127     17124     17128     17128     17129     17130
     17128     17129     17131     17128     17129     17132     17129     17132     17133
     17129     17132     17134     17129     17132     17140     17130     17129     17131
     17130     17129     17132     17131     17129     17132     17132     17134     17135
     17132     17140     17141     17132     17140     17142     17132     17140     17143
     17133     17132     17134     17133     17132     17140     17134     17132     17140
     17134     17135     17136     17134     17135     17137     17135     17137     17138
     17135     17137     17139     17135     17137     17149     17136     17135     17137
     17137     17149     17150     17137     17149     17151     17137     17149     17152
     17138     17137     17139     17138     17137     17149     17139     17137     17149
     17140     17143     17144     17141     17140     17142     17141     17140     17143
     17142     17140     17143     17143     17144     17145     17143     17144     17146
     17144     17146     17147     17144     17146     17148     17144     17146     17196
     17145     17144     17146     17146     17196     17197     17146     17196     17198
     17146     17196     17199     17147     17146     17148     17147     17146     17196
     17148     17146     17196     17149     17152     17153     17149     17152     17154
     17149     17152     17155     17150     17149     17151     17150     17149     17152
     17151     17149     17152     17152     17155     17156     17152     17155     17157
     17152     17155     17158     17153     17152     17154     17153     17152     17155
     17154     17152     17155     17155     17158     17159     17155     17158     17160
     17155     17158     17161     17156     17155     17157     17156     17155     17158
     17157     17155     17158     17158     17161     17162     17158     17161     17163
     17158     17161     17164     17159     17158     17160     17159     17158     17161
     17160     17158     17161     17161     17164     17165     17161     17164     17166
     17161     17164     17167     17162     17161     17163     17162     17161     17164
     17163     17161     17164     17164     17167     17168     17164     17167     17169
     17165     17164     17166     17165     17164     17167     17166     17164     17167
     17167     17169     17170     17167     17169     17171     17168     17167     17169
     17169     17171     17172     17169     17171     17173     17169     17171     17174
     17170     17169     17171     17171     17174     17175     17171     17174     17176
     17171     17174     17177     17172     17171     17173     17172     17171     17174
     17173     17171     17174     17174     17177     17178     17174     17177     17179
     17174     17177     17180     17175     17174     17176     17175     17174     17177
     17176     17174     17177     17177     17180     17181     17177     17180     17182
     17177     17180     17183     17178     17177     17179     17178     17177     17180
     17179     17177     17180     17180     17183     17184     17180     17183     17185
     17180     17183     17186     17181     17180     17182     17181     17180     17183
     17182     17180     17183     17183     17186     17187     17183     17186     17188
     17183     17186     17189     17184     17183     17185     17184     17183     17186
     17185     17183     17186     17186     17189     17190     17186     17189     17191
     17186     17189     17192     17187     17186     17188     17187     17186     17189
     17188     17186     17189     17189     17192     17193     17189     17192     17194
     17189     17192     17195     17190     17189     17191     17190     17189     17192
     17191     17189     17192     17193     17192     17194     17193     17192     17195
     17194     17192     17195     17196     17199     17200     17196     17199     17201
     17196     17199     17202     17197     17196     17198     17197     17196     17199
     17198     17196     17199     17199     17202     17203     17199     17202     17204
     17199     17202     17205     17200     17199     17201     17200     17199     17202
     17201     17199     17202     17202     17205     17206     17202     17205     17207
     17202     17205     17208     17203     17202     17204     17203     17202     17205
     17204     17202     17205     17205     17208     17209     17205     17208     17210
     17205     17208     17211     17206     17205     17207     17206     17205     17208
     17207     17205     17208     17208     17211     17212     17208     17211     17213
     17208     17211     17214     17209     17208     17210     17209     17208     17211
     17210     17208     17211     17211     17214     17215     17211     17214     17216
     17211     17214     17217     17212     17211     17213     17212     17211     17214
     17213     17211     17214     17214     17217     17218     17214     17217     17219
     17214     17217     17220     17215     17214     17216     17215     17214     17217
     17216     17214     17217     17217     17220     17221     17217     17220     17222
     17217     17220     17223     17218     17217     17219     17218     17217     17220
     17219     17217     17220     17220     17223     17224     17220     17223     17225
     17220     17223     17226     17221     17220     17222     17221     17220     17223
     17222     17220     17223     17223     17226     17227     17223     17226     17228
     17223     17226     17229     17224     17223     17225     17224     17223     17226
     17225     17223     17226     17226     17229     17230     17226     17229     17231
     17226     17229     17232     17227     17226     17228     17227     17226     17229
     17228     17226     17229     17229     17232     17233     17229     17232     17234
     17229     17232     17235     17230     17229     17231     17230     17229     17232
     17231     17229     17232     17232     17235     17236     17232     17235     17237
     17232     17235     17238     17233     17232     17234     17233     17232     17235
     17234     17232     17235     17236     17235     17237     17236     17235     17238
     17237     17235     17238

     45734 !NPHI: dihedrals
         1         2        17        18         1         2        17        19
         1         2        17        23         2         1         5         6
         2         1         5         7         2         1         5         8
         2         1         9        10         2         1         9        11
         2         1         9        12         2         1        13        14
         2         1        13        15         2         1        13        16
         2        17        23        20         3         2         1         5
         3         2         1         9         3         2         1        13
         3         2        17        18         3         2        17        19
         3         2        17        23         4         2         1         5
         4         2         1         9         4         2         1        13
         4         2        17        18         4         2        17        19
         4         2        17        23         5         1         2        17
         5         1         9        10         5         1         9        11
         5         1         9        12         5         1        13        14
         5         1        13        15         5         1        13        16
         6         5         1         9         6         5         1        13
         7         5         1         9         7         5         1        13
         8         5         1         9         8         5         1        13
         9         1         2        17         9         1        13        14
         9         1        13        15         9         1        13        16
        10         9         1        13        11         9         1        13
        12         9         1        13        13         1         2        17
        17        23        20        21        17        23        20        22
        17        23        20        24        18        17        23        20
        19        17        23        20        20        24        25        26
        20        24        25        27        20        24        25        28
        21        20        24        25        22        20        24        25
        23        20        24        25        24        25        28        29
        24        25        28        30        24        25        28        36
        25        28        30        31        25        28        36        37
        25        28        36        38        25        28        36        39
        26        25        28        29        26        25        28        30
        26        25        28        36        27        25        28        29
        27        25        28        30        27        25        28        36
        28        30        31        32        28        30        31        33
        28        36        39        40        29        28        30        31
        29        28        36        37        29        28        36        38
        29        28        36        39        30        28        36        37
        30        28        36        38        30        28        36        39
        30        31        33        34        30        31        33        35
        30        31        33        45        31        30        28        36
        31        33        45        46        31        33        45        47
        31        33        45        48        32        31        33        34
        32        31        33        35        32        31        33        45
        33        45        48        49        33        45        48        50
        33        45        48        51        34        33        45        46
        34        33        45        47        34        33        45        48
        35        33        45        46        35        33        45        47
        35        33        45        48        36        39        40        41
        36        39        40        42        37        36        39        40
        38        36        39        40        39        40        42        43
        39        40        42        44        39        40        42        92
        40        42        92        93        40        42        92        94
        40        42        92        95        41        40        42        43
        41        40        42        44        41        40        42        92
        42        92        95        96        42        92        95        97
        42        92        95        98        43        42        92        93
        43        42        92        94        43        42        92        95
        44        42        92        93        44        42        92        94
        44        42        92        95        45        48        51        52
        45        48        51        53        45        48        51        54
        46        45        48        49        46        45        48        50
        46        45        48        51        47        45        48        49
        47        45        48        50        47        45        48        51
        48        51        54        55        48        51        54        56
        48        51        54        57        49        48        51        52
        49        48        51        53        49        48        51        54
        50        48        51        52        50        48        51        53
        50        48        51        54        51        54        57        58
        51        54        57        59        51        54        57        60
        52        51        54        55        52        51        54        56
        52        51        54        57        53        51        54        55
        53        51        54        56        53        51        54        57
        54        57        60        61        54        57        60        62
        54        57        60        63        55        54        57        58
        55        54        57        59        55        54        57        60
        56        54        57        58        56        54        57        59
        56        54        57        60        57        60        63        64
        57        60        63        65        58        57        60        61
        58        57        60        62        58        57        60        63
        59        57        60        61        59        57        60        62
        59        57        60        63        60        63        65        66
        60        63        65        67        61        60        63        64
        61        60        63        65        62        60        63        64
        62        60        63        65        63        65        67        68
        63        65        67        69        63        65        67        70
        64        63        65        66        64        63        65        67
        65        67        70        71        65        67        70        72
        65        67        70        73        66        65        67        68
        66        65        67        69        66        65        67        70
        67        70        73        74        67        70        73        75
        67        70        73        76        68        67        70        71
        68        67        70        72        68        67        70        73
        69        67        70        71        69        67        70        72
        69        67        70        73        70        73        76        77
        70        73        76        78        70        73        76        79
        71        70        73        74        71        70        73        75
        71        70        73        76        72        70        73        74
        72        70        73        75        72        70        73        76
        73        76        79        80        73        76        79        81
        73        76        79        82        74        73        76        77
        74        73        76        78        74        73        76        79
        75        73        76        77        75        73        76        78
        75        73        76        79        76        79        82        83
        76        79        82        84        76        79        82        85
        77        76        79        80        77        76        79        81
        77        76        79        82        78        76        79        80
        78        76        79        81        78        76        79        82
        79        82        85        86        79        82        85        87
        79        82        85        88        80        79        82        83
        80        79        82        84        80        79        82        85
        81        79        82        83        81        79        82        84
        81        79        82        85        82        85        88        89
        82        85        88        90        82        85        88        91
        83        82        85        86        83        82        85        87
        83        82        85        88        84        82        85        86
        84        82        85        87        84        82        85        88
        86        85        88        89        86        85        88        90
        86        85        88        91        87        85        88        89
        87        85        88        90        87        85        88        91
        92        95        98        99        92        95        98       100
        92        95        98       101        93        92        95        96
        93        92        95        97        93        92        95        98
        94        92        95        96        94        92        95        97
        94        92        95        98        95        98       101       102
        95        98       101       103        95        98       101       104
        96        95        98        99        96        95        98       100
        96        95        98       101        97        95        98        99
        97        95        98       100        97        95        98       101
        98       101       104       105        98       101       104       106
        98       101       104       107        99        98       101       102
        99        98       101       103        99        98       101       104
       100        98       101       102       100        98       101       103
       100        98       101       104       101       104       107       108
       101       104       107       109       101       104       107       110
       102       101       104       105       102       101       104       106
       102       101       104       107       103       101       104       105
       103       101       104       106       103       101       104       107
       104       107       110       111       104       107       110       112
       104       107       110       113       105       104       107       108
       105       104       107       109       105       104       107       110
       106       104       107       108       106       104       107       109
       106       104       107       110       107       110       113       114
       107       110       113       115       107       110       113       116
       108       107       110       111       108       107       110       112
       108       107       110       113       109       107       110       111
       109       107       110       112       109       107       110       113
       110       113       116       117       110       113       116       118
       110       113       116       119       111       110       113       114
       111       110       113       115       111       110       113       116
       112       110       113       114       112       110       113       115
       112       110       113       116       113       116       119       120
       113       116       119       121       113       116       119       122
       114       113       116       117       114       113       116       118
       114       113       116       119       115       113       116       117
       115       113       116       118       115       113       116       119
       116       119       122       123       116       119       122       124
       116       119       122       125       117       116       119       120
       117       116       119       121       117       116       119       122
       118       116       119       120       118       116       119       121
       118       116       119       122       119       122       125       126
       119       122       125       127       119       122       125       128
       120       119       122       123       120       119       122       124
       120       119       122       125       121       119       122       123
       121       119       122       124       121       119       122       125
       122       125       128       129       122       125       128       130
       122       125       128       131       123       122       125       126
       123       122       125       127       123       122       125       128
       124       122       125       126       124       122       125       127
       124       122       125       128       125       128       131       132
       125       128       131       133       125       128       131       134
       126       125       128       129       126       125       128       130
       126       125       128       131       127       125       128       129
       127       125       128       130       127       125       128       131
       129       128       131       132       129       128       131       133
       129       128       131       134       130       128       131       132
       130       128       131       133       130       128       131       134
       135       139       141       142       135       139       141       143
       135       139       144       145       135       139       144       146
       135       139       144       150       136       135       139       140
       136       135       139       141       136       135       139       144
       137       135       139       140       137       135       139       141
       137       135       139       144       138       135       139       140
       138       135       139       141       138       135       139       144
       139       144       150       147       140       139       141       142
       140       139       141       143       140       139       144       145
       140       139       144       146       140       139       144       150
       141       139       144       145       141       139       144       146
       141       139       144       150       142       141       139       144
       143       141       139       144       144       150       147       148
       144       150       147       149       144       150       147       151
       145       144       150       147       146       144       150       147
       147       151       152       153       147       151       152       154
       147       151       152       155       148       147       151       152
       149       147       151       152       150       147       151       152
       151       152       155       156       151       152       155       157
       151       152       155       163       152       155       157       158
       152       155       163       164       152       155       163       165
       152       155       163       166       153       152       155       156
       153       152       155       157       153       152       155       163
       154       152       155       156       154       152       155       157
       154       152       155       163       155       157       158       159
       155       157       158       160       155       163       166       167
       156       155       157       158       156       155       163       164
       156       155       163       165       156       155       163       166
       157       155       163       164       157       155       163       165
       157       155       163       166       157       158       160       161
       157       158       160       162       157       158       160       172
       158       157       155       163       158       160       172       173
       158       160       172       174       158       160       172       175
       159       158       160       161       159       158       160       162
       159       158       160       172       160       172       175       176
       160       172       175       177       160       172       175       178
       161       160       172       173       161       160       172       174
       161       160       172       175       162       160       172       173
       162       160       172       174       162       160       172       175
       163       166       167       168       163       166       167       169
       164       163       166       167       165       163       166       167
       166       167       169       170       166       167       169       171
       166       167       169       219       167       169       219       220
       167       169       219       221       167       169       219       222
       168       167       169       170       168       167       169       171
       168       167       169       219       169       219       222       223
       169       219       222       224       169       219       222       225
       170       169       219       220       170       169       219       221
       170       169       219       222       171       169       219       220
       171       169       219       221       171       169       219       222
       172       175       178       179       172       175       178       180
       172       175       178       181       173       172       175       176
       173       172       175       177       173       172       175       178
       174       172       175       176       174       172       175       177
       174       172       175       178       175       178       181       182
       175       178       181       183       175       178       181       184
       176       175       178       179       176       175       178       180
       176       175       178       181       177       175       178       179
       177       175       178       180       177       175       178       181
       178       181       184       185       178       181       184       186
       178       181       184       187       179       178       181       182
       179       178       181       183       179       178       181       184
       180       178       181       182       180       178       181       183
       180       178       181       184       181       184       187       188
       181       184       187       189       181       184       187       190
       182       181       184       185       182       181       184       186
       182       181       184       187       183       181       184       185
       183       181       184       186       183       181       184       187
       184       187       190       191       184       187       190       192
       185       184       187       188       185       184       187       189
       185       184       187       190       186       184       187       188
       186       184       187       189       186       184       187       190
       187       190       192       193       187       190       192       194
       188       187       190       191       188       187       190       192
       189       187       190       191       189       187       190       192
       190       192       194       195       190       192       194       196
       190       192       194       197       191       190       192       193
       191       190       192       194       192       194       197       198
       192       194       197       199       192       194       197       200
       193       192       194       195       193       192       194       196
       193       192       194       197       194       197       200       201
       194       197       200       202       194       197       200       203
       195       194       197       198       195       194       197       199
       195       194       197       200       196       194       197       198
       196       194       197       199       196       194       197       200
       197       200       203       204       197       200       203       205
       197       200       203       206       198       197       200       201
       198       197       200       202       198       197       200       203
       199       197       200       201       199       197       200       202
       199       197       200       203       200       203       206       207
       200       203       206       208       200       203       206       209
       201       200       203       204       201       200       203       205
       201       200       203       206       202       200       203       204
       202       200       203       205       202       200       203       206
       203       206       209       210       203       206       209       211
       203       206       209       212       204       203       206       207
       204       203       206       208       204       203       206       209
       205       203       206       207       205       203       206       208
       205       203       206       209       206       209       212       213
       206       209       212       214       206       209       212       215
       207       206       209       210       207       206       209       211
       207       206       209       212       208       206       209       210
       208       206       209       211       208       206       209       212
       209       212       215       216       209       212       215       217
       209       212       215       218       210       209       212       213
       210       209       212       214       210       209       212       215
       211       209       212       213       211       209       212       214
       211       209       212       215       213       212       215       216
       213       212       215       217       213       212       215       218
       214       212       215       216       214       212       215       217
       214       212       215       218       219       222       225       226
       219       222       225       227       219       222       225       228
       220       219       222       223       220       219       222       224
       220       219       222       225       221       219       222       223
       221       219       222       224       221       219       222       225
       222       225       228       229       222       225       228       230
       222       225       228       231       223       222       225       226
       223       222       225       227       223       222       225       228
       224       222       225       226       224       222       225       227
       224       222       225       228       225       228       231       232
       225       228       231       233       225       228       231       234
       226       225       228       229       226       225       228       230
       226       225       228       231       227       225       228       229
       227       225       228       230       227       225       228       231
       228       231       234       235       228       231       234       236
       228       231       234       237       229       228       231       232
       229       228       231       233       229       228       231       234
       230       228       231       232       230       228       231       233
       230       228       231       234       231       234       237       238
       231       234       237       239       231       234       237       240
       232       231       234       235       232       231       234       236
       232       231       234       237       233       231       234       235
       233       231       234       236       233       231       234       237
       234       237       240       241       234       237       240       242
       234       237       240       243       235       234       237       238
       235       234       237       239       235       234       237       240
       236       234       237       238       236       234       237       239
       236       234       237       240       237       240       243       244
       237       240       243       245       237       240       243       246
       238       237       240       241       238       237       240       242
       238       237       240       243       239       237       240       241
       239       237       240       242       239       237       240       243
       240       243       246       247       240       243       246       248
       240       243       246       249       241       240       243       244
       241       240       243       245       241       240       243       246
       242       240       243       244       242       240       243       245
       242       240       243       246       243       246       249       250
       243       246       249       251       243       246       249       252
       244       243       246       247       244       243       246       248
       244       243       246       249       245       243       246       247
       245       243       246       248       245       243       246       249
       246       249       252       253       246       249       252       254
       246       249       252       255       247       246       249       250
       247       246       249       251       247       246       249       252
       248       246       249       250       248       246       249       251
       248       246       249       252       249       252       255       256
       249       252       255       257       249       252       255       258
       250       249       252       253       250       249       252       254
       250       249       252       255       251       249       252       253
       251       249       252       254       251       249       252       255
       252       255       258       259       252       255       258       260
       252       255       258       261       253       252       255       256
       253       252       255       257       253       252       255       258
       254       252       255       256       254       252       255       257
       254       252       255       258       256       255       258       259
       256       255       258       260       256       255       258       261
       257       255       258       259       257       255       258       260
       257       255       258       261       262       266       268       269
       262       266       268       270       262       266       271       272
       262       266       271       273       262       266       271       277
       263       262       266       267       263       262       266       268
       263       262       266       271       264       262       266       267
       264       262       266       268       264       262       266       271
       265       262       266       267       265       262       266       268
       265       262       266       271       266       271       277       274
       267       266       268       269       267       266       268       270
       267       266       271       272       267       266       271       273
       267       266       271       277       268       266       271       272
       268       266       271       273       268       266       271       277
       269       268       266       271       270       268       266       271
       271       277       274       275       271       277       274       276
       271       277       274       278       272       271       277       274
       273       271       277       274       274       278       279       280
       274       278       279       281       274       278       279       282
       275       274       278       279       276       274       278       279
       277       274       278       279       278       279       282       283
       278       279       282       284       278       279       282       290
       279       282       284       285       279       282       290       291
       279       282       290       292       279       282       290       293
       280       279       282       283       280       279       282       284
       280       279       282       290       281       279       282       283
       281       279       282       284       281       279       282       290
       282       284       285       286       282       284       285       287
       282       290       293       294       283       282       284       285
       283       282       290       291       283       282       290       292
       283       282       290       293       284       282       290       291
       284       282       290       292       284       282       290       293
       284       285       287       288       284       285       287       289
       284       285       287       299       285       284       282       290
       285       287       299       300       285       287       299       301
       285       287       299       302       286       285       287       288
       286       285       287       289       286       285       287       299
       287       299       302       303       287       299       302       304
       287       299       302       305       288       287       299       300
       288       287       299       301       288       287       299       302
       289       287       299       300       289       287       299       301
       289       287       299       302       290       293       294       295
       290       293       294       296       291       290       293       294
       292       290       293       294       293       294       296       297
       293       294       296       298       293       294       296       346
       294       296       346       347       294       296       346       348
       294       296       346       349       295       294       296       297
       295       294       296       298       295       294       296       346
       296       346       349       350       296       346       349       351
       296       346       349       352       297       296       346       347
       297       296       346       348       297       296       346       349
       298       296       346       347       298       296       346       348
       298       296       346       349       299       302       305       306
       299       302       305       307       299       302       305       308
       300       299       302       303       300       299       302       304
       300       299       302       305       301       299       302       303
       301       299       302       304       301       299       302       305
       302       305       308       309       302       305       308       310
       302       305       308       311       303       302       305       306
       303       302       305       307       303       302       305       308
       304       302       305       306       304       302       305       307
       304       302       305       308       305       308       311       312
       305       308       311       313       305       308       311       314
       306       305       308       309       306       305       308       310
       306       305       308       311       307       305       308       309
       307       305       308       310       307       305       308       311
       308       311       314       315       308       311       314       316
       308       311       314       317       309       308       311       312
       309       308       311       313       309       308       311       314
       310       308       311       312       310       308       311       313
       310       308       311       314       311       314       317       318
       311       314       317       319       312       311       314       315
       312       311       314       316       312       311       314       317
       313       311       314       315       313       311       314       316
       313       311       314       317       314       317       319       320
       314       317       319       321       315       314       317       318
       315       314       317       319       316       314       317       318
       316       314       317       319       317       319       321       322
       317       319       321       323       317       319       321       324
       318       317       319       320       318       317       319       321
       319       321       324       325       319       321       324       326
       319       321       324       327       320       319       321       322
       320       319       321       323       320       319       321       324
       321       324       327       328       321       324       327       329
       321       324       327       330       322       321       324       325
       322       321       324       326       322       321       324       327
       323       321       324       325       323       321       324       326
       323       321       324       327       324       327       330       331
       324       327       330       332       324       327       330       333
       325       324       327       328       325       324       327       329
       325       324       327       330       326       324       327       328
       326       324       327       329       326       324       327       330
       327       330       333       334       327       330       333       335
       327       330       333       336       328       327       330       331
       328       327       330       332       328       327       330       333
       329       327       330       331       329       327       330       332
       329       327       330       333       330       333       336       337
       330       333       336       338       330       333       336       339
       331       330       333       334       331       330       333       335
       331       330       333       336       332       330       333       334
       332       330       333       335       332       330       333       336
       333       336       339       340       333       336       339       341
       333       336       339       342       334       333       336       337
       334       333       336       338       334       333       336       339
       335       333       336       337       335       333       336       338
       335       333       336       339       336       339       342       343
       336       339       342       344       336       339       342       345
       337       336       339       340       337       336       339       341
       337       336       339       342       338       336       339       340
       338       336       339       341       338       336       339       342
       340       339       342       343       340       339       342       344
       340       339       342       345       341       339       342       343
       341       339       342       344       341       339       342       345
       346       349       352       353       346       349       352       354
       346       349       352       355       347       346       349       350
       347       346       349       351       347       346       349       352
       348       346       349       350       348       346       349       351
       348       346       349       352       349       352       355       356
       349       352       355       357       349       352       355       358
       350       349       352       353       350       349       352       354
       350       349       352       355       351       349       352       353
       351       349       352       354       351       349       352       355
       352       355       358       359       352       355       358       360
       352       355       358       361       353       352       355       356
       353       352       355       357       353       352       355       358
       354       352       355       356       354       352       355       357
       354       352       355       358       355       358       361       362
       355       358       361       363       355       358       361       364
       356       355       358       359       356       355       358       360
       356       355       358       361       357       355       358       359
       357       355       358       360       357       355       358       361
       358       361       364       365       358       361       364       366
       358       361       364       367       359       358       361       362
       359       358       361       363       359       358       361       364
       360       358       361       362       360       358       361       363
       360       358       361       364       361       364       367       368
       361       364       367       369       361       364       367       370
       362       361       364       365       362       361       364       366
       362       361       364       367       363       361       364       365
       363       361       364       366       363       361       364       367
       364       367       370       371       364       367       370       372
       364       367       370       373       365       364       367       368
       365       364       367       369       365       364       367       370
       366       364       367       368       366       364       367       369
       366       364       367       370       367       370       373       374
       367       370       373       375       367       370       373       376
       368       367       370       371       368       367       370       372
       368       367       370       373       369       367       370       371
       369       367       370       372       369       367       370       373
       370       373       376       377       370       373       376       378
       370       373       376       379       371       370       373       374
       371       370       373       375       371       370       373       376
       372       370       373       374       372       370       373       375
       372       370       373       376       373       376       379       380
       373       376       379       381       373       376       379       382
       374       373       376       377       374       373       376       378
       374       373       376       379       375       373       376       377
       375       373       376       378       375       373       376       379
       376       379       382       383       376       379       382       384
       376       379       382       385       377       376       379       380
       377       376       379       381       377       376       379       382
       378       376       379       380       378       376       379       381
       378       376       379       382       379       382       385       386
       379       382       385       387       379       382       385       388
       380       379       382       383       380       379       382       384
       380       379       382       385       381       379       382       383
       381       379       382       384       381       379       382       385
       383       382       385       386       383       382       385       387
       383       382       385       388       384       382       385       386
       384       382       385       387       384       382       385       388
       389       390       405       406       389       390       405       407
       389       390       405       411       390       389       393       394
       390       389       393       395       390       389       393       396
       390       389       397       398       390       389       397       399
       390       389       397       400       390       389       401       402
       390       389       401       403       390       389       401       404
       390       405       411       408       391       390       389       393
       391       390       389       397       391       390       389       401
       391       390       405       406       391       390       405       407
       391       390       405       411       392       390       389       393
       392       390       389       397       392       390       389       401
       392       390       405       406       392       390       405       407
       392       390       405       411       393       389       390       405
       393       389       397       398       393       389       397       399
       393       389       397       400       393       389       401       402
       393       389       401       403       393       389       401       404
       394       393       389       397       394       393       389       401
       395       393       389       397       395       393       389       401
       396       393       389       397       396       393       389       401
       397       389       390       405       397       389       401       402
       397       389       401       403       397       389       401       404
       398       397       389       401       399       397       389       401
       400       397       389       401       401       389       390       405
       405       411       408       409       405       411       408       410
       405       411       408       412       406       405       411       408
       407       405       411       408       408       412       413       414
       408       412       413       415       408       412       413       416
       409       408       412       413       410       408       412       413
       411       408       412       413       412       413       416       417
       412       413       416       418       412       413       416       424
       413       416       418       419       413       416       424       425
       413       416       424       426       413       416       424       427
       414       413       416       417       414       413       416       418
       414       413       416       424       415       413       416       417
       415       413       416       418       415       413       416       424
       416       418       419       420       416       418       419       421
       416       424       427       428       417       416       418       419
       417       416       424       425       417       416       424       426
       417       416       424       427       418       416       424       425
       418       416       424       426       418       416       424       427
       418       419       421       422       418       419       421       423
       418       419       421       433       419       418       416       424
       419       421       433       434       419       421       433       435
       419       421       433       436       420       419       421       422
       420       419       421       423       420       419       421       433
       421       433       436       437       421       433       436       438
       421       433       436       439       422       421       433       434
       422       421       433       435       422       421       433       436
       423       421       433       434       423       421       433       435
       423       421       433       436       424       427       428       429
       424       427       428       430       425       424       427       428
       426       424       427       428       427       428       430       431
       427       428       430       432       427       428       430       480
       428       430       480       481       428       430       480       482
       428       430       480       483       429       428       430       431
       429       428       430       432       429       428       430       480
       430       480       483       484       430       480       483       485
       430       480       483       486       431       430       480       481
       431       430       480       482       431       430       480       483
       432       430       480       481       432       430       480       482
       432       430       480       483       433       436       439       440
       433       436       439       441       433       436       439       442
       434       433       436       437       434       433       436       438
       434       433       436       439       435       433       436       437
       435       433       436       438       435       433       436       439
       436       439       442       443       436       439       442       444
       436       439       442       445       437       436       439       440
       437       436       439       441       437       436       439       442
       438       436       439       440       438       436       439       441
       438       436       439       442       439       442       445       446
       439       442       445       447       439       442       445       448
       440       439       442       443       440       439       442       444
       440       439       442       445       441       439       442       443
       441       439       442       444       441       439       442       445
       442       445       448       449       442       445       448       450
       442       445       448       451       443       442       445       446
       443       442       445       447       443       442       445       448
       444       442       445       446       444       442       445       447
       444       442       445       448       445       448       451       452
       445       448       451       453       446       445       448       449
       446       445       448       450       446       445       448       451
       447       445       448       449       447       445       448       450
       447       445       448       451       448       451       453       454
       448       451       453       455       449       448       451       452
       449       448       451       453       450       448       451       452
       450       448       451       453       451       453       455       456
       451       453       455       457       451       453       455       458
       452       451       453       454       452       451       453       455
       453       455       458       459       453       455       458       460
       453       455       458       461       454       453       455       456
       454       453       455       457       454       453       455       458
       455       458       461       462       455       458       461       463
       455       458       461       464       456       455       458       459
       456       455       458       460       456       455       458       461
       457       455       458       459       457       455       458       460
       457       455       458       461       458       461       464       465
       458       461       464       466       458       461       464       467
       459       458       461       462       459       458       461       463
       459       458       461       464       460       458       461       462
       460       458       461       463       460       458       461       464
       461       464       467       468       461       464       467       469
       461       464       467       470       462       461       464       465
       462       461       464       466       462       461       464       467
       463       461       464       465       463       461       464       466
       463       461       464       467       464       467       470       471
       464       467       470       472       464       467       470       473
       465       464       467       468       465       464       467       469
       465       464       467       470       466       464       467       468
       466       464       467       469       466       464       467       470
       467       470       473       474       467       470       473       475
       467       470       473       476       468       467       470       471
       468       467       470       472       468       467       470       473
       469       467       470       471       469       467       470       472
       469       467       470       473       470       473       476       477
       470       473       476       478       470       473       476       479
       471       470       473       474       471       470       473       475
       471       470       473       476       472       470       473       474
       472       470       473       475       472       470       473       476
       474       473       476       477       474       473       476       478
       474       473       476       479       475       473       476       477
       475       473       476       478       475       473       476       479
       480       483       486       487       480       483       486       488
       480       483       486       489       481       480       483       484
       481       480       483       485       481       480       483       486
       482       480       483       484       482       480       483       485
       482       480       483       486       483       486       489       490
       483       486       489       491       483       486       489       492
       484       483       486       487       484       483       486       488
       484       483       486       489       485       483       486       487
       485       483       486       488       485       483       486       489
       486       489       492       493       486       489       492       494
       486       489       492       495       487       486       489       490
       487       486       489       491       487       486       489       492
       488       486       489       490       488       486       489       491
       488       486       489       492       489       492       495       496
       489       492       495       497       489       492       495       498
       490       489       492       493       490       489       492       494
       490       489       492       495       491       489       492       493
       491       489       492       494       491       489       492       495
       492       495       498       499       492       495       498       500
       492       495       498       501       493       492       495       496
       493       492       495       497       493       492       495       498
       494       492       495       496       494       492       495       497
       494       492       495       498       495       498       501       502
       495       498       501       503       495       498       501       504
       496       495       498       499       496       495       498       500
       496       495       498       501       497       495       498       499
       497       495       498       500       497       495       498       501
       498       501       504       505       498       501       504       506
       498       501       504       507       499       498       501       502
       499       498       501       503       499       498       501       504
       500       498       501       502       500       498       501       503
       500       498       501       504       501       504       507       508
       501       504       507       509       501       504       507       510
       502       501       504       505       502       501       504       506
       502       501       504       507       503       501       504       505
       503       501       504       506       503       501       504       507
       504       507       510       511       504       507       510       512
       504       507       510       513       505       504       507       508
       505       504       507       509       505       504       507       510
       506       504       507       508       506       504       507       509
       506       504       507       510       507       510       513       514
       507       510       513       515       507       510       513       516
       508       507       510       511       508       507       510       512
       508       507       510       513       509       507       510       511
       509       507       510       512       509       507       510       513
       510       513       516       517       510       513       516       518
       510       513       516       519       511       510       513       514
       511       510       513       515       511       510       513       516
       512       510       513       514       512       510       513       515
       512       510       513       516       513       516       519       520
       513       516       519       521       513       516       519       522
       514       513       516       517       514       513       516       518
       514       513       516       519       515       513       516       517
       515       513       516       518       515       513       516       519
       517       516       519       520       517       516       519       521
       517       516       519       522       518       516       519       520
       518       516       519       521       518       516       519       522
       523       524       539       540       523       524       539       541
       523       524       539       545       524       523       527       528
       524       523       527       529       524       523       527       530
       524       523       531       532       524       523       531       533
       524       523       531       534       524       523       535       536
       524       523       535       537       524       523       535       538
       524       539       545       542       525       524       523       527
       525       524       523       531       525       524       523       535
       525       524       539       540       525       524       539       541
       525       524       539       545       526       524       523       527
       526       524       523       531       526       524       523       535
       526       524       539       540       526       524       539       541
       526       524       539       545       527       523       524       539
       527       523       531       532       527       523       531       533
       527       523       531       534       527       523       535       536
       527       523       535       537       527       523       535       538
       528       527       523       531       528       527       523       535
       529       527       523       531       529       527       523       535
       530       527       523       531       530       527       523       535
       531       523       524       539       531       523       535       536
       531       523       535       537       531       523       535       538
       532       531       523       535       533       531       523       535
       534       531       523       535       535       523       524       539
       539       545       542       543       539       545       542       544
       539       545       542       546       540       539       545       542
       541       539       545       542       542       546       547       548
       542       546       547       549       542       546       547       550
       543       542       546       547       544       542       546       547
       545       542       546       547       546       547       550       551
       546       547       550       552       546       547       550       558
       547       550       552       553       547       550       558       559
       547       550       558       560       547       550       558       561
       548       547       550       551       548       547       550       552
       548       547       550       558       549       547       550       551
       549       547       550       552       549       547       550       558
       550       552       553       554       550       552       553       555
       550       558       561       562       551       550       552       553
       551       550       558       559       551       550       558       560
       551       550       558       561       552       550       558       559
       552       550       558       560       552       550       558       561
       552       553       555       556       552       553       555       557
       552       553       555       567       553       552       550       558
       553       555       567       568       553       555       567       569
       553       555       567       570       554       553       555       556
       554       553       555       557       554       553       555       567
       555       567       570       571       555       567       570       572
       555       567       570       573       556       555       567       568
       556       555       567       569       556       555       567       570
       557       555       567       568       557       555       567       569
       557       555       567       570       558       561       562       563
       558       561       562       564       559       558       561       562
       560       558       561       562       561       562       564       565
       561       562       564       566       561       562       564       614
       562       564       614       615       562       564       614       616
       562       564       614       617       563       562       564       565
       563       562       564       566       563       562       564       614
       564       614       617       618       564       614       617       619
       564       614       617       620       565       564       614       615
       565       564       614       616       565       564       614       617
       566       564       614       615       566       564       614       616
       566       564       614       617       567       570       573       574
       567       570       573       575       567       570       573       576
       568       567       570       571       568       567       570       572
       568       567       570       573       569       567       570       571
       569       567       570       572       569       567       570       573
       570       573       576       577       570       573       576       578
       570       573       576       579       571       570       573       574
       571       570       573       575       571       570       573       576
       572       570       573       574       572       570       573       575
       572       570       573       576       573       576       579       580
       573       576       579       581       573       576       579       582
       574       573       576       577       574       573       576       578
       574       573       576       579       575       573       576       577
       575       573       576       578       575       573       576       579
       576       579       582       583       576       579       582       584
       576       579       582       585       577       576       579       580
       577       576       579       581       577       576       579       582
       578       576       579       580       578       576       579       581
       578       576       579       582       579       582       585       586
       579       582       585       587       580       579       582       583
       580       579       582       584       580       579       582       585
       581       579       582       583       581       579       582       584
       581       579       582       585       582       585       587       588
       582       585       587       589       583       582       585       586
       583       582       585       587       584       582       585       586
       584       582       585       587       585       587       589       590
       585       587       589       591       585       587       589       592
       586       585       587       588       586       585       587       589
       587       589       592       593       587       589       592       594
       587       589       592       595       588       587       589       590
       588       587       589       591       588       587       589       592
       589       592       595       596       589       592       595       597
       589       592       595       598       590       589       592       593
       590       589       592       594       590       589       592       595
       591       589       592       593       591       589       592       594
       591       589       592       595       592       595       598       599
       592       595       598       600       592       595       598       601
       593       592       595       596       593       592       595       597
       593       592       595       598       594       592       595       596
       594       592       595       597       594       592       595       598
       595       598       601       602       595       598       601       603
       595       598       601       604       596       595       598       599
       596       595       598       600       596       595       598       601
       597       595       598       599       597       595       598       600
       597       595       598       601       598       601       604       605
       598       601       604       606       598       601       604       607
       599       598       601       602       599       598       601       603
       599       598       601       604       600       598       601       602
       600       598       601       603       600       598       601       604
       601       604       607       608       601       604       607       609
       601       604       607       610       602       601       604       605
       602       601       604       606       602       601       604       607
       603       601       604       605       603       601       604       606
       603       601       604       607       604       607       610       611
       604       607       610       612       604       607       610       613
       605       604       607       608       605       604       607       609
       605       604       607       610       606       604       607       608
       606       604       607       609       606       604       607       610
       608       607       610       611       608       607       610       612
       608       607       610       613       609       607       610       611
       609       607       610       612       609       607       610       613
       614       617       620       621       614       617       620       622
       614       617       620       623       615       614       617       618
       615       614       617       619       615       614       617       620
       616       614       617       618       616       614       617       619
       616       614       617       620       617       620       623       624
       617       620       623       625       617       620       623       626
       618       617       620       621       618       617       620       622
       618       617       620       623       619       617       620       621
       619       617       620       622       619       617       620       623
       620       623       626       627       620       623       626       628
       620       623       626       629       621       620       623       624
       621       620       623       625       621       620       623       626
       622       620       623       624       622       620       623       625
       622       620       623       626       623       626       629       630
       623       626       629       631       623       626       629       632
       624       623       626       627       624       623       626       628
       624       623       626       629       625       623       626       627
       625       623       626       628       625       623       626       629
       626       629       632       633       626       629       632       634
       626       629       632       635       627       626       629       630
       627       626       629       631       627       626       629       632
       628       626       629       630       628       626       629       631
       628       626       629       632       629       632       635       636
       629       632       635       637       629       632       635       638
       630       629       632       633       630       629       632       634
       630       629       632       635       631       629       632       633
       631       629       632       634       631       629       632       635
       632       635       638       639       632       635       638       640
       632       635       638       641       633       632       635       636
       633       632       635       637       633       632       635       638
       634       632       635       636       634       632       635       637
       634       632       635       638       635       638       641       642
       635       638       641       643       635       638       641       644
       636       635       638       639       636       635       638       640
       636       635       638       641       637       635       638       639
       637       635       638       640       637       635       638       641
       638       641       644       645       638       641       644       646
       638       641       644       647       639       638       641       642
       639       638       641       643       639       638       641       644
       640       638       641       642       640       638       641       643
       640       638       641       644       641       644       647       648
       641       644       647       649       641       644       647       650
       642       641       644       645       642       641       644       646
       642       641       644       647       643       641       644       645
       643       641       644       646       643       641       644       647
       644       647       650       651       644       647       650       652
       644       647       650       653       645       644       647       648
       645       644       647       649       645       644       647       650
       646       644       647       648       646       644       647       649
       646       644       647       650       647       650       653       654
       647       650       653       655       647       650       653       656
       648       647       650       651       648       647       650       652
       648       647       650       653       649       647       650       651
       649       647       650       652       649       647       650       653
       651       650       653       654       651       650       653       655
       651       650       653       656       652       650       653       654
       652       650       653       655       652       650       653       656
       657       658       673       674       657       658       673       675
       657       658       673       679       658       657       661       662
       658       657       661       663       658       657       661       664
       658       657       665       666       658       657       665       667
       658       657       665       668       658       657       669       670
       658       657       669       671       658       657       669       672
       658       673       679       676       659       658       657       661
       659       658       657       665       659       658       657       669
       659       658       673       674       659       658       673       675
       659       658       673       679       660       658       657       661
       660       658       657       665       660       658       657       669
       660       658       673       674       660       658       673       675
       660       658       673       679       661       657       658       673
       661       657       665       666       661       657       665       667
       661       657       665       668       661       657       669       670
       661       657       669       671       661       657       669       672
       662       661       657       665       662       661       657       669
       663       661       657       665       663       661       657       669
       664       661       657       665       664       661       657       669
       665       657       658       673       665       657       669       670
       665       657       669       671       665       657       669       672
       666       665       657       669       667       665       657       669
       668       665       657       669       669       657       658       673
       673       679       676       677       673       679       676       678
       673       679       676       680       674       673       679       676
       675       673       679       676       676       680       681       682
       676       680       681       683       676       680       681       684
       677       676       680       681       678       676       680       681
       679       676       680       681       680       681       684       685
       680       681       684       686       680       681       684       692
       681       684       686       687       681       684       692       693
       681       684       692       694       681       684       692       695
       682       681       684       685       682       681       684       686
       682       681       684       692       683       681       684       685
       683       681       684       686       683       681       684       692
       684       686       687       688       684       686       687       689
       684       692       695       696       685       684       686       687
       685       684       692       693       685       684       692       694
       685       684       692       695       686       684       692       693
       686       684       692       694       686       684       692       695
       686       687       689       690       686       687       689       691
       686       687       689       701       687       686       684       692
       687       689       701       702       687       689       701       703
       687       689       701       704       688       687       689       690
       688       687       689       691       688       687       689       701
       689       701       704       705       689       701       704       706
       689       701       704       707       690       689       701       702
       690       689       701       703       690       689       701       704
       691       689       701       702       691       689       701       703
       691       689       701       704       692       695       696       697
       692       695       696       698       693       692       695       696
       694       692       695       696       695       696       698       699
       695       696       698       700       695       696       698       748
       696       698       748       749       696       698       748       750
       696       698       748       751       697       696       698       699
       697       696       698       700       697       696       698       748
       698       748       751       752       698       748       751       753
       698       748       751       754       699       698       748       749
       699       698       748       750       699       698       748       751
       700       698       748       749       700       698       748       750
       700       698       748       751       701       704       707       708
       701       704       707       709       701       704       707       710
       702       701       704       705       702       701       704       706
       702       701       704       707       703       701       704       705
       703       701       704       706       703       701       704       707
       704       707       710       711       704       707       710       712
       704       707       710       713       705       704       707       708
       705       704       707       709       705       704       707       710
       706       704       707       708       706       704       707       709
       706       704       707       710       707       710       713       714
       707       710       713       715       707       710       713       716
       708       707       710       711       708       707       710       712
       708       707       710       713       709       707       710       711
       709       707       710       712       709       707       710       713
       710       713       716       717       710       713       716       718
       710       713       716       719       711       710       713       714
       711       710       713       715       711       710       713       716
       712       710       713       714       712       710       713       715
       712       710       713       716       713       716       719       720
       713       716       719       721       714       713       716       717
       714       713       716       718       714       713       716       719
       715       713       716       717       715       713       716       718
       715       713       716       719       716       719       721       722
       716       719       721       723       717       716       719       720
       717       716       719       721       718       716       719       720
       718       716       719       721       719       721       723       724
       719       721       723       725       719       721       723       726
       720       719       721       722       720       719       721       723
       721       723       726       727       721       723       726       728
       721       723       726       729       722       721       723       724
       722       721       723       725       722       721       723       726
       723       726       729       730       723       726       729       731
       723       726       729       732       724       723       726       727
       724       723       726       728       724       723       726       729
       725       723       726       727       725       723       726       728
       725       723       726       729       726       729       732       733
       726       729       732       734       726       729       732       735
       727       726       729       730       727       726       729       731
       727       726       729       732       728       726       729       730
       728       726       729       731       728       726       729       732
       729       732       735       736       729       732       735       737
       729       732       735       738       730       729       732       733
       730       729       732       734       730       729       732       735
       731       729       732       733       731       729       732       734
       731       729       732       735       732       735       738       739
       732       735       738       740       732       735       738       741
       733       732       735       736       733       732       735       737
       733       732       735       738       734       732       735       736
       734       732       735       737       734       732       735       738
       735       738       741       742       735       738       741       743
       735       738       741       744       736       735       738       739
       736       735       738       740       736       735       738       741
       737       735       738       739       737       735       738       740
       737       735       738       741       738       741       744       745
       738       741       744       746       738       741       744       747
       739       738       741       742       739       738       741       743
       739       738       741       744       740       738       741       742
       740       738       741       743       740       738       741       744
       742       741       744       745       742       741       744       746
       742       741       744       747       743       741       744       745
       743       741       744       746       743       741       744       747
       748       751       754       755       748       751       754       756
       748       751       754       757       749       748       751       752
       749       748       751       753       749       748       751       754
       750       748       751       752       750       748       751       753
       750       748       751       754       751       754       757       758
       751       754       757       759       751       754       757       760
       752       751       754       755       752       751       754       756
       752       751       754       757       753       751       754       755
       753       751       754       756       753       751       754       757
       754       757       760       761       754       757       760       762
       754       757       760       763       755       754       757       758
       755       754       757       759       755       754       757       760
       756       754       757       758       756       754       757       759
       756       754       757       760       757       760       763       764
       757       760       763       765       757       760       763       766
       758       757       760       761       758       757       760       762
       758       757       760       763       759       757       760       761
       759       757       760       762       759       757       760       763
       760       763       766       767       760       763       766       768
       760       763       766       769       761       760       763       764
       761       760       763       765       761       760       763       766
       762       760       763       764       762       760       763       765
       762       760       763       766       763       766       769       770
       763       766       769       771       763       766       769       772
       764       763       766       767       764       763       766       768
       764       763       766       769       765       763       766       767
       765       763       766       768       765       763       766       769
       766       769       772       773       766       769       772       774
       766       769       772       775       767       766       769       770
       767       766       769       771       767       766       769       772
       768       766       769       770       768       766       769       771
       768       766       769       772       769       772       775       776
       769       772       775       777       769       772       775       778
       770       769       772       773       770       769       772       774
       770       769       772       775       771       769       772       773
       771       769       772       774       771       769       772       775
       772       775       778       779       772       775       778       780
       772       775       778       781       773       772       775       776
       773       772       775       777       773       772       775       778
       774       772       775       776       774       772       775       777
       774       772       775       778       775       778       781       782
       775       778       781       783       775       778       781       784
       776       775       778       779       776       775       778       780
       776       775       778       781       777       775       778       779
       777       775       778       780       777       775       778       781
       778       781       784       785       778       781       784       786
       778       781       784       787       779       778       781       782
       779       778       781       783       779       778       781       784
       780       778       781       782       780       778       781       783
       780       778       781       784       781       784       787       788
       781       784       787       789       781       784       787       790
       782       781       784       785       782       781       784       786
       782       781       784       787       783       781       784       785
       783       781       784       786       783       781       784       787
       785       784       787       788       785       784       787       789
       785       784       787       790       786       784       787       788
       786       784       787       789       786       784       787       790
       791       795       797       798       791       795       797       799
       791       795       800       801       791       795       800       802
       791       795       800       806       792       791       795       796
       792       791       795       797       792       791       795       800
       793       791       795       796       793       791       795       797
       793       791       795       800       794       791       795       796
       794       791       795       797       794       791       795       800
       795       800       806       803       796       795       797       798
       796       795       797       799       796       795       800       801
       796       795       800       802       796       795       800       806
       797       795       800       801       797       795       800       802
       797       795       800       806       798       797       795       800
       799       797       795       800       800       806       803       804
       800       806       803       805       800       806       803       807
       801       800       806       803       802       800       806       803
       803       807       808       809       803       807       808       810
       803       807       808       811       804       803       807       808
       805       803       807       808       806       803       807       808
       807       808       811       812       807       808       811       813
       807       808       811       819       808       811       813       814
       808       811       819       820       808       811       819       821
       808       811       819       822       809       808       811       812
       809       808       811       813       809       808       811       819
       810       808       811       812       810       808       811       813
       810       808       811       819       811       813       814       815
       811       813       814       816       811       819       822       823
       812       811       813       814       812       811       819       820
       812       811       819       821       812       811       819       822
       813       811       819       820       813       811       819       821
       813       811       819       822       813       814       816       817
       813       814       816       818       813       814       816       828
       814       813       811       819       814       816       828       829
       814       816       828       830       814       816       828       831
       815       814       816       817       815       814       816       818
       815       814       816       828       816       828       831       832
       816       828       831       833       816       828       831       834
       817       816       828       829       817       816       828       830
       817       816       828       831       818       816       828       829
       818       816       828       830       818       816       828       831
       819       822       823       824       819       822       823       825
       820       819       822       823       821       819       822       823
       822       823       825       826       822       823       825       827
       822       823       825       875       823       825       875       876
       823       825       875       877       823       825       875       878
       824       823       825       826       824       823       825       827
       824       823       825       875       825       875       878       879
       825       875       878       880       825       875       878       881
       826       825       875       876       826       825       875       877
       826       825       875       878       827       825       875       876
       827       825       875       877       827       825       875       878
       828       831       834       835       828       831       834       836
       828       831       834       837       829       828       831       832
       829       828       831       833       829       828       831       834
       830       828       831       832       830       828       831       833
       830       828       831       834       831       834       837       838
       831       834       837       839       831       834       837       840
       832       831       834       835       832       831       834       836
       832       831       834       837       833       831       834       835
       833       831       834       836       833       831       834       837
       834       837       840       841       834       837       840       842
       834       837       840       843       835       834       837       838
       835       834       837       839       835       834       837       840
       836       834       837       838       836       834       837       839
       836       834       837       840       837       840       843       844
       837       840       843       845       837       840       843       846
       838       837       840       841       838       837       840       842
       838       837       840       843       839       837       840       841
       839       837       840       842       839       837       840       843
       840       843       846       847       840       843       846       848
       841       840       843       844       841       840       843       845
       841       840       843       846       842       840       843       844
       842       840       843       845       842       840       843       846
       843       846       848       849       843       846       848       850
       844       843       846       847       844       843       846       848
       845       843       846       847       845       843       846       848
       846       848       850       851       846       848       850       852
       846       848       850       853       847       846       848       849
       847       846       848       850       848       850       853       854
       848       850       853       855       848       850       853       856
       849       848       850       851       849       848       850       852
       849       848       850       853       850       853       856       857
       850       853       856       858       850       853       856       859
       851       850       853       854       851       850       853       855
       851       850       853       856       852       850       853       854
       852       850       853       855       852       850       853       856
       853       856       859       860       853       856       859       861
       853       856       859       862       854       853       856       857
       854       853       856       858       854       853       856       859
       855       853       856       857       855       853       856       858
       855       853       856       859       856       859       862       863
       856       859       862       864       856       859       862       865
       857       856       859       860       857       856       859       861
       857       856       859       862       858       856       859       860
       858       856       859       861       858       856       859       862
       859       862       865       866       859       862       865       867
       859       862       865       868       860       859       862       863
       860       859       862       864       860       859       862       865
       861       859       862       863       861       859       862       864
       861       859       862       865       862       865       868       869
       862       865       868       870       862       865       868       871
       863       862       865       866       863       862       865       867
       863       862       865       868       864       862       865       866
       864       862       865       867       864       862       865       868
       865       868       871       872       865       868       871       873
       865       868       871       874       866       865       868       869
       866       865       868       870       866       865       868       871
       867       865       868       869       867       865       868       870
       867       865       868       871       869       868       871       872
       869       868       871       873       869       868       871       874
       870       868       871       872       870       868       871       873
       870       868       871       874       875       878       881       882
       875       878       881       883       875       878       881       884
       876       875       878       879       876       875       878       880
       876       875       878       881       877       875       878       879
       877       875       878       880       877       875       878       881
       878       881       884       885       878       881       884       886
       878       881       884       887       879       878       881       882
       879       878       881       883       879       878       881       884
       880       878       881       882       880       878       881       883
       880       878       881       884       881       884       887       888
       881       884       887       889       881       884       887       890
       882       881       884       885       882       881       884       886
       882       881       884       887       883       881       884       885
       883       881       884       886       883       881       884       887
       884       887       890       891       884       887       890       892
       884       887       890       893       885       884       887       888
       885       884       887       889       885       884       887       890
       886       884       887       888       886       884       887       889
       886       884       887       890       887       890       893       894
       887       890       893       895       887       890       893       896
       888       887       890       891       888       887       890       892
       888       887       890       893       889       887       890       891
       889       887       890       892       889       887       890       893
       890       893       896       897       890       893       896       898
       890       893       896       899       891       890       893       894
       891       890       893       895       891       890       893       896
       892       890       893       894       892       890       893       895
       892       890       893       896       893       896       899       900
       893       896       899       901       893       896       899       902
       894       893       896       897       894       893       896       898
       894       893       896       899       895       893       896       897
       895       893       896       898       895       893       896       899
       896       899       902       903       896       899       902       904
       896       899       902       905       897       896       899       900
       897       896       899       901       897       896       899       902
       898       896       899       900       898       896       899       901
       898       896       899       902       899       902       905       906
       899       902       905       907       899       902       905       908
       900       899       902       903       900       899       902       904
       900       899       902       905       901       899       902       903
       901       899       902       904       901       899       902       905
       902       905       908       909       902       905       908       910
       902       905       908       911       903       902       905       906
       903       902       905       907       903       902       905       908
       904       902       905       906       904       902       905       907
       904       902       905       908       905       908       911       912
       905       908       911       913       905       908       911       914
       906       905       908       909       906       905       908       910
       906       905       908       911       907       905       908       909
       907       905       908       910       907       905       908       911
       908       911       914       915       908       911       914       916
       908       911       914       917       909       908       911       912
       909       908       911       913       909       908       911       914
       910       908       911       912       910       908       911       913
       910       908       911       914       912       911       914       915
       912       911       914       916       912       911       914       917
       913       911       914       915       913       911       914       916
       913       911       914       917       918       919       934       935
       918       919       934       936       918       919       934       940
       919       918       922       923       919       918       922       924
       919       918       922       925       919       918       926       927
       919       918       926       928       919       918       926       929
       919       918       930       931       919       918       930       932
       919       918       930       933       919       934       940       937
       920       919       918       922       920       919       918       926
       920       919       918       930       920       919       934       935
       920       919       934       936       920       919       934       940
       921       919       918       922       921       919       918       926
       921       919       918       930       921       919       934       935
       921       919       934       936       921       919       934       940
       922       918       919       934       922       918       926       927
       922       918       926       928       922       918       926       929
       922       918       930       931       922       918       930       932
       922       918       930       933       923       922       918       926
       923       922       918       930       924       922       918       926
       924       922       918       930       925       922       918       926
       925       922       918       930       926       918       919       934
       926       918       930       931       926       918       930       932
       926       918       930       933       927       926       918       930
       928       926       918       930       929       926       918       930
       930       918       919       934       934       940       937       938
       934       940       937       939       934       940       937       941
       935       934       940       937       936       934       940       937
       937       941       942       943       937       941       942       944
       937       941       942       945       938       937       941       942
       939       937       941       942       940       937       941       942
       941       942       945       946       941       942       945       947
       941       942       945       953       942       945       947       948
       942       945       953       954       942       945       953       955
       942       945       953       956       943       942       945       946
       943       942       945       947       943       942       945       953
       944       942       945       946       944       942       945       947
       944       942       945       953       945       947       948       949
       945       947       948       950       945       953       956       957
       946       945       947       948       946       945       953       954
       946       945       953       955       946       945       953       956
       947       945       953       954       947       945       953       955
       947       945       953       956       947       948       950       951
       947       948       950       952       947       948       950       962
       948       947       945       953       948       950       962       963
       948       950       962       964       948       950       962       965
       949       948       950       951       949       948       950       952
       949       948       950       962       950       962       965       966
       950       962       965       967       950       962       965       968
       951       950       962       963       951       950       962       964
       951       950       962       965       952       950       962       963
       952       950       962       964       952       950       962       965
       953       956       957       958       953       956       957       959
       954       953       956       957       955       953       956       957
       956       957       959       960       956       957       959       961
       956       957       959      1009       957       959      1009      1010
       957       959      1009      1011       957       959      1009      1012
       958       957       959       960       958       957       959       961
       958       957       959      1009       959      1009      1012      1013
       959      1009      1012      1014       959      1009      1012      1015
       960       959      1009      1010       960       959      1009      1011
       960       959      1009      1012       961       959      1009      1010
       961       959      1009      1011       961       959      1009      1012
       962       965       968       969       962       965       968       970
       962       965       968       971       963       962       965       966
       963       962       965       967       963       962       965       968
       964       962       965       966       964       962       965       967
       964       962       965       968       965       968       971       972
       965       968       971       973       965       968       971       974
       966       965       968       969       966       965       968       970
       966       965       968       971       967       965       968       969
       967       965       968       970       967       965       968       971
       968       971       974       975       968       971       974       976
       968       971       974       977       969       968       971       972
       969       968       971       973       969       968       971       974
       970       968       971       972       970       968       971       973
       970       968       971       974       971       974       977       978
       971       974       977       979       971       974       977       980
       972       971       974       975       972       971       974       976
       972       971       974       977       973       971       974       975
       973       971       974       976       973       971       974       977
       974       977       980       981       974       977       980       982
       975       974       977       978       975       974       977       979
       975       974       977       980       976       974       977       978
       976       974       977       979       976       974       977       980
       977       980       982       983       977       980       982       984
       978       977       980       981       978       977       980       982
       979       977       980       981       979       977       980       982
       980       982       984       985       980       982       984       986
       980       982       984       987       981       980       982       983
       981       980       982       984       982       984       987       988
       982       984       987       989       982       984       987       990
       983       982       984       985       983       982       984       986
       983       982       984       987       984       987       990       991
       984       987       990       992       984       987       990       993
       985       984       987       988       985       984       987       989
       985       984       987       990       986       984       987       988
       986       984       987       989       986       984       987       990
       987       990       993       994       987       990       993       995
       987       990       993       996       988       987       990       991
       988       987       990       992       988       987       990       993
       989       987       990       991       989       987       990       992
       989       987       990       993       990       993       996       997
       990       993       996       998       990       993       996       999
       991       990       993       994       991       990       993       995
       991       990       993       996       992       990       993       994
       992       990       993       995       992       990       993       996
       993       996       999      1000       993       996       999      1001
       993       996       999      1002       994       993       996       997
       994       993       996       998       994       993       996       999
       995       993       996       997       995       993       996       998
       995       993       996       999       996       999      1002      1003
       996       999      1002      1004       996       999      1002      1005
       997       996       999      1000       997       996       999      1001
       997       996       999      1002       998       996       999      1000
       998       996       999      1001       998       996       999      1002
       999      1002      1005      1006       999      1002      1005      1007
       999      1002      1005      1008      1000       999      1002      1003
      1000       999      1002      1004      1000       999      1002      1005
      1001       999      1002      1003      1001       999      1002      1004
      1001       999      1002      1005      1003      1002      1005      1006
      1003      1002      1005      1007      1003      1002      1005      1008
      1004      1002      1005      1006      1004      1002      1005      1007
      1004      1002      1005      1008      1009      1012      1015      1016
      1009      1012      1015      1017      1009      1012      1015      1018
      1010      1009      1012      1013      1010      1009      1012      1014
      1010      1009      1012      1015      1011      1009      1012      1013
      1011      1009      1012      1014      1011      1009      1012      1015
      1012      1015      1018      1019      1012      1015      1018      1020
      1012      1015      1018      1021      1013      1012      1015      1016
      1013      1012      1015      1017      1013      1012      1015      1018
      1014      1012      1015      1016      1014      1012      1015      1017
      1014      1012      1015      1018      1015      1018      1021      1022
      1015      1018      1021      1023      1015      1018      1021      1024
      1016      1015      1018      1019      1016      1015      1018      1020
      1016      1015      1018      1021      1017      1015      1018      1019
      1017      1015      1018      1020      1017      1015      1018      1021
      1018      1021      1024      1025      1018      1021      1024      1026
      1018      1021      1024      1027      1019      1018      1021      1022
      1019      1018      1021      1023      1019      1018      1021      1024
      1020      1018      1021      1022      1020      1018      1021      1023
      1020      1018      1021      1024      1021      1024      1027      1028
      1021      1024      1027      1029      1021      1024      1027      1030
      1022      1021      1024      1025      1022      1021      1024      1026
      1022      1021      1024      1027      1023      1021      1024      1025
      1023      1021      1024      1026      1023      1021      1024      1027
      1024      1027      1030      1031      1024      1027      1030      1032
      1024      1027      1030      1033      1025      1024      1027      1028
      1025      1024      1027      1029      1025      1024      1027      1030
      1026      1024      1027      1028      1026      1024      1027      1029
      1026      1024      1027      1030      1027      1030      1033      1034
      1027      1030      1033      1035      1027      1030      1033      1036
      1028      1027      1030      1031      1028      1027      1030      1032
      1028      1027      1030      1033      1029      1027      1030      1031
      1029      1027      1030      1032      1029      1027      1030      1033
      1030      1033      1036      1037      1030      1033      1036      1038
      1030      1033      1036      1039      1031      1030      1033      1034
      1031      1030      1033      1035      1031      1030      1033      1036
      1032      1030      1033      1034      1032      1030      1033      1035
      1032      1030      1033      1036      1033      1036      1039      1040
      1033      1036      1039      1041      1033      1036      1039      1042
      1034      1033      1036      1037      1034      1033      1036      1038
      1034      1033      1036      1039      1035      1033      1036      1037
      1035      1033      1036      1038      1035      1033      1036      1039
      1036      1039      1042      1043      1036      1039      1042      1044
      1036      1039      1042      1045      1037      1036      1039      1040
      1037      1036      1039      1041      1037      1036      1039      1042
      1038      1036      1039      1040      1038      1036      1039      1041
      1038      1036      1039      1042      1039      1042      1045      1046
      1039      1042      1045      1047      1039      1042      1045      1048
      1040      1039      1042      1043      1040      1039      1042      1044
      1040      1039      1042      1045      1041      1039      1042      1043
      1041      1039      1042      1044      1041      1039      1042      1045
      1042      1045      1048      1049      1042      1045      1048      1050
      1042      1045      1048      1051      1043      1042      1045      1046
      1043      1042      1045      1047      1043      1042      1045      1048
      1044      1042      1045      1046      1044      1042      1045      1047
      1044      1042      1045      1048      1046      1045      1048      1049
      1046      1045      1048      1050      1046      1045      1048      1051
      1047      1045      1048      1049      1047      1045      1048      1050
      1047      1045      1048      1051      1052      1053      1068      1069
      1052      1053      1068      1070      1052      1053      1068      1074
      1053      1052      1056      1057      1053      1052      1056      1058
      1053      1052      1056      1059      1053      1052      1060      1061
      1053      1052      1060      1062      1053      1052      1060      1063
      1053      1052      1064      1065      1053      1052      1064      1066
      1053      1052      1064      1067      1053      1068      1074      1071
      1054      1053      1052      1056      1054      1053      1052      1060
      1054      1053      1052      1064      1054      1053      1068      1069
      1054      1053      1068      1070      1054      1053      1068      1074
      1055      1053      1052      1056      1055      1053      1052      1060
      1055      1053      1052      1064      1055      1053      1068      1069
      1055      1053      1068      1070      1055      1053      1068      1074
      1056      1052      1053      1068      1056      1052      1060      1061
      1056      1052      1060      1062      1056      1052      1060      1063
      1056      1052      1064      1065      1056      1052      1064      1066
      1056      1052      1064      1067      1057      1056      1052      1060
      1057      1056      1052      1064      1058      1056      1052      1060
      1058      1056      1052      1064      1059      1056      1052      1060
      1059      1056      1052      1064      1060      1052      1053      1068
      1060      1052      1064      1065      1060      1052      1064      1066
      1060      1052      1064      1067      1061      1060      1052      1064
      1062      1060      1052      1064      1063      1060      1052      1064
      1064      1052      1053      1068      1068      1074      1071      1072
      1068      1074      1071      1073      1068      1074      1071      1075
      1069      1068      1074      1071      1070      1068      1074      1071
      1071      1075      1076      1077      1071      1075      1076      1078
      1071      1075      1076      1079      1072      1071      1075      1076
      1073      1071      1075      1076      1074      1071      1075      1076
      1075      1076      1079      1080      1075      1076      1079      1081
      1075      1076      1079      1087      1076      1079      1081      1082
      1076      1079      1087      1088      1076      1079      1087      1089
      1076      1079      1087      1090      1077      1076      1079      1080
      1077      1076      1079      1081      1077      1076      1079      1087
      1078      1076      1079      1080      1078      1076      1079      1081
      1078      1076      1079      1087      1079      1081      1082      1083
      1079      1081      1082      1084      1079      1087      1090      1091
      1080      1079      1081      1082      1080      1079      1087      1088
      1080      1079      1087      1089      1080      1079      1087      1090
      1081      1079      1087      1088      1081      1079      1087      1089
      1081      1079      1087      1090      1081      1082      1084      1085
      1081      1082      1084      1086      1081      1082      1084      1096
      1082      1081      1079      1087      1082      1084      1096      1097
      1082      1084      1096      1098      1082      1084      1096      1099
      1083      1082      1084      1085      1083      1082      1084      1086
      1083      1082      1084      1096      1084      1096      1099      1100
      1084      1096      1099      1101      1084      1096      1099      1102
      1085      1084      1096      1097      1085      1084      1096      1098
      1085      1084      1096      1099      1086      1084      1096      1097
      1086      1084      1096      1098      1086      1084      1096      1099
      1087      1090      1091      1092      1087      1090      1091      1093
      1088      1087      1090      1091      1089      1087      1090      1091
      1090      1091      1093      1094      1090      1091      1093      1095
      1090      1091      1093      1143      1091      1093      1143      1144
      1091      1093      1143      1145      1091      1093      1143      1146
      1092      1091      1093      1094      1092      1091      1093      1095
      1092      1091      1093      1143      1093      1143      1146      1147
      1093      1143      1146      1148      1093      1143      1146      1149
      1094      1093      1143      1144      1094      1093      1143      1145
      1094      1093      1143      1146      1095      1093      1143      1144
      1095      1093      1143      1145      1095      1093      1143      1146
      1096      1099      1102      1103      1096      1099      1102      1104
      1096      1099      1102      1105      1097      1096      1099      1100
      1097      1096      1099      1101      1097      1096      1099      1102
      1098      1096      1099      1100      1098      1096      1099      1101
      1098      1096      1099      1102      1099      1102      1105      1106
      1099      1102      1105      1107      1099      1102      1105      1108
      1100      1099      1102      1103      1100      1099      1102      1104
      1100      1099      1102      1105      1101      1099      1102      1103
      1101      1099      1102      1104      1101      1099      1102      1105
      1102      1105      1108      1109      1102      1105      1108      1110
      1102      1105      1108      1111      1103      1102      1105      1106
      1103      1102      1105      1107      1103      1102      1105      1108
      1104      1102      1105      1106      1104      1102      1105      1107
      1104      1102      1105      1108      1105      1108      1111      1112
      1105      1108      1111      1113      1105      1108      1111      1114
      1106      1105      1108      1109      1106      1105      1108      1110
      1106      1105      1108      1111      1107      1105      1108      1109
      1107      1105      1108      1110      1107      1105      1108      1111
      1108      1111      1114      1115      1108      1111      1114      1116
      1109      1108      1111      1112      1109      1108      1111      1113
      1109      1108      1111      1114      1110      1108      1111      1112
      1110      1108      1111      1113      1110      1108      1111      1114
      1111      1114      1116      1117      1111      1114      1116      1118
      1112      1111      1114      1115      1112      1111      1114      1116
      1113      1111      1114      1115      1113      1111      1114      1116
      1114      1116      1118      1119      1114      1116      1118      1120
      1114      1116      1118      1121      1115      1114      1116      1117
      1115      1114      1116      1118      1116      1118      1121      1122
      1116      1118      1121      1123      1116      1118      1121      1124
      1117      1116      1118      1119      1117      1116      1118      1120
      1117      1116      1118      1121      1118      1121      1124      1125
      1118      1121      1124      1126      1118      1121      1124      1127
      1119      1118      1121      1122      1119      1118      1121      1123
      1119      1118      1121      1124      1120      1118      1121      1122
      1120      1118      1121      1123      1120      1118      1121      1124
      1121      1124      1127      1128      1121      1124      1127      1129
      1121      1124      1127      1130      1122      1121      1124      1125
      1122      1121      1124      1126      1122      1121      1124      1127
      1123      1121      1124      1125      1123      1121      1124      1126
      1123      1121      1124      1127      1124      1127      1130      1131
      1124      1127      1130      1132      1124      1127      1130      1133
      1125      1124      1127      1128      1125      1124      1127      1129
      1125      1124      1127      1130      1126      1124      1127      1128
      1126      1124      1127      1129      1126      1124      1127      1130
      1127      1130      1133      1134      1127      1130      1133      1135
      1127      1130      1133      1136      1128      1127      1130      1131
      1128      1127      1130      1132      1128      1127      1130      1133
      1129      1127      1130      1131      1129      1127      1130      1132
      1129      1127      1130      1133      1130      1133      1136      1137
      1130      1133      1136      1138      1130      1133      1136      1139
      1131      1130      1133      1134      1131      1130      1133      1135
      1131      1130      1133      1136      1132      1130      1133      1134
      1132      1130      1133      1135      1132      1130      1133      1136
      1133      1136      1139      1140      1133      1136      1139      1141
      1133      1136      1139      1142      1134      1133      1136      1137
      1134      1133      1136      1138      1134      1133      1136      1139
      1135      1133      1136      1137      1135      1133      1136      1138
      1135      1133      1136      1139      1137      1136      1139      1140
      1137      1136      1139      1141      1137      1136      1139      1142
      1138      1136      1139      1140      1138      1136      1139      1141
      1138      1136      1139      1142      1143      1146      1149      1150
      1143      1146      1149      1151      1143      1146      1149      1152
      1144      1143      1146      1147      1144      1143      1146      1148
      1144      1143      1146      1149      1145      1143      1146      1147
      1145      1143      1146      1148      1145      1143      1146      1149
      1146      1149      1152      1153      1146      1149      1152      1154
      1146      1149      1152      1155      1147      1146      1149      1150
      1147      1146      1149      1151      1147      1146      1149      1152
      1148      1146      1149      1150      1148      1146      1149      1151
      1148      1146      1149      1152      1149      1152      1155      1156
      1149      1152      1155      1157      1149      1152      1155      1158
      1150      1149      1152      1153      1150      1149      1152      1154
      1150      1149      1152      1155      1151      1149      1152      1153
      1151      1149      1152      1154      1151      1149      1152      1155
      1152      1155      1158      1159      1152      1155      1158      1160
      1152      1155      1158      1161      1153      1152      1155      1156
      1153      1152      1155      1157      1153      1152      1155      1158
      1154      1152      1155      1156      1154      1152      1155      1157
      1154      1152      1155      1158      1155      1158      1161      1162
      1155      1158      1161      1163      1155      1158      1161      1164
      1156      1155      1158      1159      1156      1155      1158      1160
      1156      1155      1158      1161      1157      1155      1158      1159
      1157      1155      1158      1160      1157      1155      1158      1161
      1158      1161      1164      1165      1158      1161      1164      1166
      1158      1161      1164      1167      1159      1158      1161      1162
      1159      1158      1161      1163      1159      1158      1161      1164
      1160      1158      1161      1162      1160      1158      1161      1163
      1160      1158      1161      1164      1161      1164      1167      1168
      1161      1164      1167      1169      1161      1164      1167      1170
      1162      1161      1164      1165      1162      1161      1164      1166
      1162      1161      1164      1167      1163      1161      1164      1165
      1163      1161      1164      1166      1163      1161      1164      1167
      1164      1167      1170      1171      1164      1167      1170      1172
      1164      1167      1170      1173      1165      1164      1167      1168
      1165      1164      1167      1169      1165      1164      1167      1170
      1166      1164      1167      1168      1166      1164      1167      1169
      1166      1164      1167      1170      1167      1170      1173      1174
      1167      1170      1173      1175      1167      1170      1173      1176
      1168      1167      1170      1171      1168      1167      1170      1172
      1168      1167      1170      1173      1169      1167      1170      1171
      1169      1167      1170      1172      1169      1167      1170      1173
      1170      1173      1176      1177      1170      1173      1176      1178
      1170      1173      1176      1179      1171      1170      1173      1174
      1171      1170      1173      1175      1171      1170      1173      1176
      1172      1170      1173      1174      1172      1170      1173      1175
      1172      1170      1173      1176      1173      1176      1179      1180
      1173      1176      1179      1181      1173      1176      1179      1182
      1174      1173      1176      1177      1174      1173      1176      1178
      1174      1173      1176      1179      1175      1173      1176      1177
      1175      1173      1176      1178      1175      1173      1176      1179
      1176      1179      1182      1183      1176      1179      1182      1184
      1176      1179      1182      1185      1177      1176      1179      1180
      1177      1176      1179      1181      1177      1176      1179      1182
      1178      1176      1179      1180      1178      1176      1179      1181
      1178      1176      1179      1182      1180      1179      1182      1183
      1180      1179      1182      1184      1180      1179      1182      1185
      1181      1179      1182      1183      1181      1179      1182      1184
      1181      1179      1182      1185      1186      1187      1202      1203
      1186      1187      1202      1204      1186      1187      1202      1208
      1187      1186      1190      1191      1187      1186      1190      1192
      1187      1186      1190      1193      1187      1186      1194      1195
      1187      1186      1194      1196      1187      1186      1194      1197
      1187      1186      1198      1199      1187      1186      1198      1200
      1187      1186      1198      1201      1187      1202      1208      1205
      1188      1187      1186      1190      1188      1187      1186      1194
      1188      1187      1186      1198      1188      1187      1202      1203
      1188      1187      1202      1204      1188      1187      1202      1208
      1189      1187      1186      1190      1189      1187      1186      1194
      1189      1187      1186      1198      1189      1187      1202      1203
      1189      1187      1202      1204      1189      1187      1202      1208
      1190      1186      1187      1202      1190      1186      1194      1195
      1190      1186      1194      1196      1190      1186      1194      1197
      1190      1186      1198      1199      1190      1186      1198      1200
      1190      1186      1198      1201      1191      1190      1186      1194
      1191      1190      1186      1198      1192      1190      1186      1194
      1192      1190      1186      1198      1193      1190      1186      1194
      1193      1190      1186      1198      1194      1186      1187      1202
      1194      1186      1198      1199      1194      1186      1198      1200
      1194      1186      1198      1201      1195      1194      1186      1198
      1196      1194      1186      1198      1197      1194      1186      1198
      1198      1186      1187      1202      1202      1208      1205      1206
      1202      1208      1205      1207      1202      1208      1205      1209
      1203      1202      1208      1205      1204      1202      1208      1205
      1205      1209      1210      1211      1205      1209      1210      1212
      1205      1209      1210      1213      1206      1205      1209      1210
      1207      1205      1209      1210      1208      1205      1209      1210
      1209      1210      1213      1214      1209      1210      1213      1215
      1209      1210      1213      1221      1210      1213      1215      1216
      1210      1213      1221      1222      1210      1213      1221      1223
      1210      1213      1221      1224      1211      1210      1213      1214
      1211      1210      1213      1215      1211      1210      1213      1221
      1212      1210      1213      1214      1212      1210      1213      1215
      1212      1210      1213      1221      1213      1215      1216      1217
      1213      1215      1216      1218      1213      1221      1224      1225
      1214      1213      1215      1216      1214      1213      1221      1222
      1214      1213      1221      1223      1214      1213      1221      1224
      1215      1213      1221      1222      1215      1213      1221      1223
      1215      1213      1221      1224      1215      1216      1218      1219
      1215      1216      1218      1220      1215      1216      1218      1230
      1216      1215      1213      1221      1216      1218      1230      1231
      1216      1218      1230      1232      1216      1218      1230      1233
      1217      1216      1218      1219      1217      1216      1218      1220
      1217      1216      1218      1230      1218      1230      1233      1234
      1218      1230      1233      1235      1218      1230      1233      1236
      1219      1218      1230      1231      1219      1218      1230      1232
      1219      1218      1230      1233      1220      1218      1230      1231
      1220      1218      1230      1232      1220      1218      1230      1233
      1221      1224      1225      1226      1221      1224      1225      1227
      1222      1221      1224      1225      1223      1221      1224      1225
      1224      1225      1227      1228      1224      1225      1227      1229
      1224      1225      1227      1277      1225      1227      1277      1278
      1225      1227      1277      1279      1225      1227      1277      1280
      1226      1225      1227      1228      1226      1225      1227      1229
      1226      1225      1227      1277      1227      1277      1280      1281
      1227      1277      1280      1282      1227      1277      1280      1283
      1228      1227      1277      1278      1228      1227      1277      1279
      1228      1227      1277      1280      1229      1227      1277      1278
      1229      1227      1277      1279      1229      1227      1277      1280
      1230      1233      1236      1237      1230      1233      1236      1238
      1230      1233      1236      1239      1231      1230      1233      1234
      1231      1230      1233      1235      1231      1230      1233      1236
      1232      1230      1233      1234      1232      1230      1233      1235
      1232      1230      1233      1236      1233      1236      1239      1240
      1233      1236      1239      1241      1233      1236      1239      1242
      1234      1233      1236      1237      1234      1233      1236      1238
      1234      1233      1236      1239      1235      1233      1236      1237
      1235      1233      1236      1238      1235      1233      1236      1239
      1236      1239      1242      1243      1236      1239      1242      1244
      1236      1239      1242      1245      1237      1236      1239      1240
      1237      1236      1239      1241      1237      1236      1239      1242
      1238      1236      1239      1240      1238      1236      1239      1241
      1238      1236      1239      1242      1239      1242      1245      1246
      1239      1242      1245      1247      1239      1242      1245      1248
      1240      1239      1242      1243      1240      1239      1242      1244
      1240      1239      1242      1245      1241      1239      1242      1243
      1241      1239      1242      1244      1241      1239      1242      1245
      1242      1245      1248      1249      1242      1245      1248      1250
      1243      1242      1245      1246      1243      1242      1245      1247
      1243      1242      1245      1248      1244      1242      1245      1246
      1244      1242      1245      1247      1244      1242      1245      1248
      1245      1248      1250      1251      1245      1248      1250      1252
      1246      1245      1248      1249      1246      1245      1248      1250
      1247      1245      1248      1249      1247      1245      1248      1250
      1248      1250      1252      1253      1248      1250      1252      1254
      1248      1250      1252      1255      1249      1248      1250      1251
      1249      1248      1250      1252      1250      1252      1255      1256
      1250      1252      1255      1257      1250      1252      1255      1258
      1251      1250      1252      1253      1251      1250      1252      1254
      1251      1250      1252      1255      1252      1255      1258      1259
      1252      1255      1258      1260      1252      1255      1258      1261
      1253      1252      1255      1256      1253      1252      1255      1257
      1253      1252      1255      1258      1254      1252      1255      1256
      1254      1252      1255      1257      1254      1252      1255      1258
      1255      1258      1261      1262      1255      1258      1261      1263
      1255      1258      1261      1264      1256      1255      1258      1259
      1256      1255      1258      1260      1256      1255      1258      1261
      1257      1255      1258      1259      1257      1255      1258      1260
      1257      1255      1258      1261      1258      1261      1264      1265
      1258      1261      1264      1266      1258      1261      1264      1267
      1259      1258      1261      1262      1259      1258      1261      1263
      1259      1258      1261      1264      1260      1258      1261      1262
      1260      1258      1261      1263      1260      1258      1261      1264
      1261      1264      1267      1268      1261      1264      1267      1269
      1261      1264      1267      1270      1262      1261      1264      1265
      1262      1261      1264      1266      1262      1261      1264      1267
      1263      1261      1264      1265      1263      1261      1264      1266
      1263      1261      1264      1267      1264      1267      1270      1271
      1264      1267      1270      1272      1264      1267      1270      1273
      1265      1264      1267      1268      1265      1264      1267      1269
      1265      1264      1267      1270      1266      1264      1267      1268
      1266      1264      1267      1269      1266      1264      1267      1270
      1267      1270      1273      1274      1267      1270      1273      1275
      1267      1270      1273      1276      1268      1267      1270      1271
      1268      1267      1270      1272      1268      1267      1270      1273
      1269      1267      1270      1271      1269      1267      1270      1272
      1269      1267      1270      1273      1271      1270      1273      1274
      1271      1270      1273      1275      1271      1270      1273      1276
      1272      1270      1273      1274      1272      1270      1273      1275
      1272      1270      1273      1276      1277      1280      1283      1284
      1277      1280      1283      1285      1277      1280      1283      1286
      1278      1277      1280      1281      1278      1277      1280      1282
      1278      1277      1280      1283      1279      1277      1280      1281
      1279      1277      1280      1282      1279      1277      1280      1283
      1280      1283      1286      1287      1280      1283      1286      1288
      1280      1283      1286      1289      1281      1280      1283      1284
      1281      1280      1283      1285      1281      1280      1283      1286
      1282      1280      1283      1284      1282      1280      1283      1285
      1282      1280      1283      1286      1283      1286      1289      1290
      1283      1286      1289      1291      1283      1286      1289      1292
      1284      1283      1286      1287      1284      1283      1286      1288
      1284      1283      1286      1289      1285      1283      1286      1287
      1285      1283      1286      1288      1285      1283      1286      1289
      1286      1289      1292      1293      1286      1289      1292      1294
      1286      1289      1292      1295      1287      1286      1289      1290
      1287      1286      1289      1291      1287      1286      1289      1292
      1288      1286      1289      1290      1288      1286      1289      1291
      1288      1286      1289      1292      1289      1292      1295      1296
      1289      1292      1295      1297      1289      1292      1295      1298
      1290      1289      1292      1293      1290      1289      1292      1294
      1290      1289      1292      1295      1291      1289      1292      1293
      1291      1289      1292      1294      1291      1289      1292      1295
      1292      1295      1298      1299      1292      1295      1298      1300
      1292      1295      1298      1301      1293      1292      1295      1296
      1293      1292      1295      1297      1293      1292      1295      1298
      1294      1292      1295      1296      1294      1292      1295      1297
      1294      1292      1295      1298      1295      1298      1301      1302
      1295      1298      1301      1303      1295      1298      1301      1304
      1296      1295      1298      1299      1296      1295      1298      1300
      1296      1295      1298      1301      1297      1295      1298      1299
      1297      1295      1298      1300      1297      1295      1298      1301
      1298      1301      1304      1305      1298      1301      1304      1306
      1298      1301      1304      1307      1299      1298      1301      1302
      1299      1298      1301      1303      1299      1298      1301      1304
      1300      1298      1301      1302      1300      1298      1301      1303
      1300      1298      1301      1304      1301      1304      1307      1308
      1301      1304      1307      1309      1301      1304      1307      1310
      1302      1301      1304      1305      1302      1301      1304      1306
      1302      1301      1304      1307      1303      1301      1304      1305
      1303      1301      1304      1306      1303      1301      1304      1307
      1304      1307      1310      1311      1304      1307      1310      1312
      1304      1307      1310      1313      1305      1304      1307      1308
      1305      1304      1307      1309      1305      1304      1307      1310
      1306      1304      1307      1308      1306      1304      1307      1309
      1306      1304      1307      1310      1307      1310      1313      1314
      1307      1310      1313      1315      1307      1310      1313      1316
      1308      1307      1310      1311      1308      1307      1310      1312
      1308      1307      1310      1313      1309      1307      1310      1311
      1309      1307      1310      1312      1309      1307      1310      1313
      1310      1313      1316      1317      1310      1313      1316      1318
      1310      1313      1316      1319      1311      1310      1313      1314
      1311      1310      1313      1315      1311      1310      1313      1316
      1312      1310      1313      1314      1312      1310      1313      1315
      1312      1310      1313      1316      1314      1313      1316      1317
      1314      1313      1316      1318      1314      1313      1316      1319
      1315      1313      1316      1317      1315      1313      1316      1318
      1315      1313      1316      1319      1320      1321      1336      1337
      1320      1321      1336      1338      1320      1321      1336      1342
      1321      1320      1324      1325      1321      1320      1324      1326
      1321      1320      1324      1327      1321      1320      1328      1329
      1321      1320      1328      1330      1321      1320      1328      1331
      1321      1320      1332      1333      1321      1320      1332      1334
      1321      1320      1332      1335      1321      1336      1342      1339
      1322      1321      1320      1324      1322      1321      1320      1328
      1322      1321      1320      1332      1322      1321      1336      1337
      1322      1321      1336      1338      1322      1321      1336      1342
      1323      1321      1320      1324      1323      1321      1320      1328
      1323      1321      1320      1332      1323      1321      1336      1337
      1323      1321      1336      1338      1323      1321      1336      1342
      1324      1320      1321      1336      1324      1320      1328      1329
      1324      1320      1328      1330      1324      1320      1328      1331
      1324      1320      1332      1333      1324      1320      1332      1334
      1324      1320      1332      1335      1325      1324      1320      1328
      1325      1324      1320      1332      1326      1324      1320      1328
      1326      1324      1320      1332      1327      1324      1320      1328
      1327      1324      1320      1332      1328      1320      1321      1336
      1328      1320      1332      1333      1328      1320      1332      1334
      1328      1320      1332      1335      1329      1328      1320      1332
      1330      1328      1320      1332      1331      1328      1320      1332
      1332      1320      1321      1336      1336      1342      1339      1340
      1336      1342      1339      1341      1336      1342      1339      1343
      1337      1336      1342      1339      1338      1336      1342      1339
      1339      1343      1344      1345      1339      1343      1344      1346
      1339      1343      1344      1347      1340      1339      1343      1344
      1341      1339      1343      1344      1342      1339      1343      1344
      1343      1344      1347      1348      1343      1344      1347      1349
      1343      1344      1347      1355      1344      1347      1349      1350
      1344      1347      1355      1356      1344      1347      1355      1357
      1344      1347      1355      1358      1345      1344      1347      1348
      1345      1344      1347      1349      1345      1344      1347      1355
      1346      1344      1347      1348      1346      1344      1347      1349
      1346      1344      1347      1355      1347      1349      1350      1351
      1347      1349      1350      1352      1347      1355      1358      1359
      1348      1347      1349      1350      1348      1347      1355      1356
      1348      1347      1355      1357      1348      1347      1355      1358
      1349      1347      1355      1356      1349      1347      1355      1357
      1349      1347      1355      1358      1349      1350      1352      1353
      1349      1350      1352      1354      1349      1350      1352      1364
      1350      1349      1347      1355      1350      1352      1364      1365
      1350      1352      1364      1366      1350      1352      1364      1367
      1351      1350      1352      1353      1351      1350      1352      1354
      1351      1350      1352      1364      1352      1364      1367      1368
      1352      1364      1367      1369      1352      1364      1367      1370
      1353      1352      1364      1365      1353      1352      1364      1366
      1353      1352      1364      1367      1354      1352      1364      1365
      1354      1352      1364      1366      1354      1352      1364      1367
      1355      1358      1359      1360      1355      1358      1359      1361
      1356      1355      1358      1359      1357      1355      1358      1359
      1358      1359      1361      1362      1358      1359      1361      1363
      1358      1359      1361      1411      1359      1361      1411      1412
      1359      1361      1411      1413      1359      1361      1411      1414
      1360      1359      1361      1362      1360      1359      1361      1363
      1360      1359      1361      1411      1361      1411      1414      1415
      1361      1411      1414      1416      1361      1411      1414      1417
      1362      1361      1411      1412      1362      1361      1411      1413
      1362      1361      1411      1414      1363      1361      1411      1412
      1363      1361      1411      1413      1363      1361      1411      1414
      1364      1367      1370      1371      1364      1367      1370      1372
      1364      1367      1370      1373      1365      1364      1367      1368
      1365      1364      1367      1369      1365      1364      1367      1370
      1366      1364      1367      1368      1366      1364      1367      1369
      1366      1364      1367      1370      1367      1370      1373      1374
      1367      1370      1373      1375      1367      1370      1373      1376
      1368      1367      1370      1371      1368      1367      1370      1372
      1368      1367      1370      1373      1369      1367      1370      1371
      1369      1367      1370      1372      1369      1367      1370      1373
      1370      1373      1376      1377      1370      1373      1376      1378
      1370      1373      1376      1379      1371      1370      1373      1374
      1371      1370      1373      1375      1371      1370      1373      1376
      1372      1370      1373      1374      1372      1370      1373      1375
      1372      1370      1373      1376      1373      1376      1379      1380
      1373      1376      1379      1381      1373      1376      1379      1382
      1374      1373      1376      1377      1374      1373      1376      1378
      1374      1373      1376      1379      1375      1373      1376      1377
      1375      1373      1376      1378      1375      1373      1376      1379
      1376      1379      1382      1383      1376      1379      1382      1384
      1377      1376      1379      1380      1377      1376      1379      1381
      1377      1376      1379      1382      1378      1376      1379      1380
      1378      1376      1379      1381      1378      1376      1379      1382
      1379      1382      1384      1385      1379      1382      1384      1386
      1380      1379      1382      1383      1380      1379      1382      1384
      1381      1379      1382      1383      1381      1379      1382      1384
      1382      1384      1386      1387      1382      1384      1386      1388
      1382      1384      1386      1389      1383      1382      1384      1385
      1383      1382      1384      1386      1384      1386      1389      1390
      1384      1386      1389      1391      1384      1386      1389      1392
      1385      1384      1386      1387      1385      1384      1386      1388
      1385      1384      1386      1389      1386      1389      1392      1393
      1386      1389      1392      1394      1386      1389      1392      1395
      1387      1386      1389      1390      1387      1386      1389      1391
      1387      1386      1389      1392      1388      1386      1389      1390
      1388      1386      1389      1391      1388      1386      1389      1392
      1389      1392      1395      1396      1389      1392      1395      1397
      1389      1392      1395      1398      1390      1389      1392      1393
      1390      1389      1392      1394      1390      1389      1392      1395
      1391      1389      1392      1393      1391      1389      1392      1394
      1391      1389      1392      1395      1392      1395      1398      1399
      1392      1395      1398      1400      1392      1395      1398      1401
      1393      1392      1395      1396      1393      1392      1395      1397
      1393      1392      1395      1398      1394      1392      1395      1396
      1394      1392      1395      1397      1394      1392      1395      1398
      1395      1398      1401      1402      1395      1398      1401      1403
      1395      1398      1401      1404      1396      1395      1398      1399
      1396      1395      1398      1400      1396      1395      1398      1401
      1397      1395      1398      1399      1397      1395      1398      1400
      1397      1395      1398      1401      1398      1401      1404      1405
      1398      1401      1404      1406      1398      1401      1404      1407
      1399      1398      1401      1402      1399      1398      1401      1403
      1399      1398      1401      1404      1400      1398      1401      1402
      1400      1398      1401      1403      1400      1398      1401      1404
      1401      1404      1407      1408      1401      1404      1407      1409
      1401      1404      1407      1410      1402      1401      1404      1405
      1402      1401      1404      1406      1402      1401      1404      1407
      1403      1401      1404      1405      1403      1401      1404      1406
      1403      1401      1404      1407      1405      1404      1407      1408
      1405      1404      1407      1409      1405      1404      1407      1410
      1406      1404      1407      1408      1406      1404      1407      1409
      1406      1404      1407      1410      1411      1414      1417      1418
      1411      1414      1417      1419      1411      1414      1417      1420
      1412      1411      1414      1415      1412      1411      1414      1416
      1412      1411      1414      1417      1413      1411      1414      1415
      1413      1411      1414      1416      1413      1411      1414      1417
      1414      1417      1420      1421      1414      1417      1420      1422
      1414      1417      1420      1423      1415      1414      1417      1418
      1415      1414      1417      1419      1415      1414      1417      1420
      1416      1414      1417      1418      1416      1414      1417      1419
      1416      1414      1417      1420      1417      1420      1423      1424
      1417      1420      1423      1425      1417      1420      1423      1426
      1418      1417      1420      1421      1418      1417      1420      1422
      1418      1417      1420      1423      1419      1417      1420      1421
      1419      1417      1420      1422      1419      1417      1420      1423
      1420      1423      1426      1427      1420      1423      1426      1428
      1420      1423      1426      1429      1421      1420      1423      1424
      1421      1420      1423      1425      1421      1420      1423      1426
      1422      1420      1423      1424      1422      1420      1423      1425
      1422      1420      1423      1426      1423      1426      1429      1430
      1423      1426      1429      1431      1423      1426      1429      1432
      1424      1423      1426      1427      1424      1423      1426      1428
      1424      1423      1426      1429      1425      1423      1426      1427
      1425      1423      1426      1428      1425      1423      1426      1429
      1426      1429      1432      1433      1426      1429      1432      1434
      1426      1429      1432      1435      1427      1426      1429      1430
      1427      1426      1429      1431      1427      1426      1429      1432
      1428      1426      1429      1430      1428      1426      1429      1431
      1428      1426      1429      1432      1429      1432      1435      1436
      1429      1432      1435      1437      1429      1432      1435      1438
      1430      1429      1432      1433      1430      1429      1432      1434
      1430      1429      1432      1435      1431      1429      1432      1433
      1431      1429      1432      1434      1431      1429      1432      1435
      1432      1435      1438      1439      1432      1435      1438      1440
      1432      1435      1438      1441      1433      1432      1435      1436
      1433      1432      1435      1437      1433      1432      1435      1438
      1434      1432      1435      1436      1434      1432      1435      1437
      1434      1432      1435      1438      1435      1438      1441      1442
      1435      1438      1441      1443      1435      1438      1441      1444
      1436      1435      1438      1439      1436      1435      1438      1440
      1436      1435      1438      1441      1437      1435      1438      1439
      1437      1435      1438      1440      1437      1435      1438      1441
      1438      1441      1444      1445      1438      1441      1444      1446
      1438      1441      1444      1447      1439      1438      1441      1442
      1439      1438      1441      1443      1439      1438      1441      1444
      1440      1438      1441      1442      1440      1438      1441      1443
      1440      1438      1441      1444      1441      1444      1447      1448
      1441      1444      1447      1449      1441      1444      1447      1450
      1442      1441      1444      1445      1442      1441      1444      1446
      1442      1441      1444      1447      1443      1441      1444      1445
      1443      1441      1444      1446      1443      1441      1444      1447
      1444      1447      1450      1451      1444      1447      1450      1452
      1444      1447      1450      1453      1445      1444      1447      1448
      1445      1444      1447      1449      1445      1444      1447      1450
      1446      1444      1447      1448      1446      1444      1447      1449
      1446      1444      1447      1450      1448      1447      1450      1451
      1448      1447      1450      1452      1448      1447      1450      1453
      1449      1447      1450      1451      1449      1447      1450      1452
      1449      1447      1450      1453      1454      1455      1470      1471
      1454      1455      1470      1472      1454      1455      1470      1476
      1455      1454      1458      1459      1455      1454      1458      1460
      1455      1454      1458      1461      1455      1454      1462      1463
      1455      1454      1462      1464      1455      1454      1462      1465
      1455      1454      1466      1467      1455      1454      1466      1468
      1455      1454      1466      1469      1455      1470      1476      1473
      1456      1455      1454      1458      1456      1455      1454      1462
      1456      1455      1454      1466      1456      1455      1470      1471
      1456      1455      1470      1472      1456      1455      1470      1476
      1457      1455      1454      1458      1457      1455      1454      1462
      1457      1455      1454      1466      1457      1455      1470      1471
      1457      1455      1470      1472      1457      1455      1470      1476
      1458      1454      1455      1470      1458      1454      1462      1463
      1458      1454      1462      1464      1458      1454      1462      1465
      1458      1454      1466      1467      1458      1454      1466      1468
      1458      1454      1466      1469      1459      1458      1454      1462
      1459      1458      1454      1466      1460      1458      1454      1462
      1460      1458      1454      1466      1461      1458      1454      1462
      1461      1458      1454      1466      1462      1454      1455      1470
      1462      1454      1466      1467      1462      1454      1466      1468
      1462      1454      1466      1469      1463      1462      1454      1466
      1464      1462      1454      1466      1465      1462      1454      1466
      1466      1454      1455      1470      1470      1476      1473      1474
      1470      1476      1473      1475      1470      1476      1473      1477
      1471      1470      1476      1473      1472      1470      1476      1473
      1473      1477      1478      1479      1473      1477      1478      1480
      1473      1477      1478      1481      1474      1473      1477      1478
      1475      1473      1477      1478      1476      1473      1477      1478
      1477      1478      1481      1482      1477      1478      1481      1483
      1477      1478      1481      1489      1478      1481      1483      1484
      1478      1481      1489      1490      1478      1481      1489      1491
      1478      1481      1489      1492      1479      1478      1481      1482
      1479      1478      1481      1483      1479      1478      1481      1489
      1480      1478      1481      1482      1480      1478      1481      1483
      1480      1478      1481      1489      1481      1483      1484      1485
      1481      1483      1484      1486      1481      1489      1492      1493
      1482      1481      1483      1484      1482      1481      1489      1490
      1482      1481      1489      1491      1482      1481      1489      1492
      1483      1481      1489      1490      1483      1481      1489      1491
      1483      1481      1489      1492      1483      1484      1486      1487
      1483      1484      1486      1488      1483      1484      1486      1498
      1484      1483      1481      1489      1484      1486      1498      1499
      1484      1486      1498      1500      1484      1486      1498      1501
      1485      1484      1486      1487      1485      1484      1486      1488
      1485      1484      1486      1498      1486      1498      1501      1502
      1486      1498      1501      1503      1486      1498      1501      1504
      1487      1486      1498      1499      1487      1486      1498      1500
      1487      1486      1498      1501      1488      1486      1498      1499
      1488      1486      1498      1500      1488      1486      1498      1501
      1489      1492      1493      1494      1489      1492      1493      1495
      1490      1489      1492      1493      1491      1489      1492      1493
      1492      1493      1495      1496      1492      1493      1495      1497
      1492      1493      1495      1545      1493      1495      1545      1546
      1493      1495      1545      1547      1493      1495      1545      1548
      1494      1493      1495      1496      1494      1493      1495      1497
      1494      1493      1495      1545      1495      1545      1548      1549
      1495      1545      1548      1550      1495      1545      1548      1551
      1496      1495      1545      1546      1496      1495      1545      1547
      1496      1495      1545      1548      1497      1495      1545      1546
      1497      1495      1545      1547      1497      1495      1545      1548
      1498      1501      1504      1505      1498      1501      1504      1506
      1498      1501      1504      1507      1499      1498      1501      1502
      1499      1498      1501      1503      1499      1498      1501      1504
      1500      1498      1501      1502      1500      1498      1501      1503
      1500      1498      1501      1504      1501      1504      1507      1508
      1501      1504      1507      1509      1501      1504      1507      1510
      1502      1501      1504      1505      1502      1501      1504      1506
      1502      1501      1504      1507      1503      1501      1504      1505
      1503      1501      1504      1506      1503      1501      1504      1507
      1504      1507      1510      1511      1504      1507      1510      1512
      1504      1507      1510      1513      1505      1504      1507      1508
      1505      1504      1507      1509      1505      1504      1507      1510
      1506      1504      1507      1508      1506      1504      1507      1509
      1506      1504      1507      1510      1507      1510      1513      1514
      1507      1510      1513      1515      1507      1510      1513      1516
      1508      1507      1510      1511      1508      1507      1510      1512
      1508      1507      1510      1513      1509      1507      1510      1511
      1509      1507      1510      1512      1509      1507      1510      1513
      1510      1513      1516      1517      1510      1513      1516      1518
      1511      1510      1513      1514      1511      1510      1513      1515
      1511      1510      1513      1516      1512      1510      1513      1514
      1512      1510      1513      1515      1512      1510      1513      1516
      1513      1516      1518      1519      1513      1516      1518      1520
      1514      1513      1516      1517      1514      1513      1516      1518
      1515      1513      1516      1517      1515      1513      1516      1518
      1516      1518      1520      1521      1516      1518      1520      1522
      1516      1518      1520      1523      1517      1516      1518      1519
      1517      1516      1518      1520      1518      1520      1523      1524
      1518      1520      1523      1525      1518      1520      1523      1526
      1519      1518      1520      1521      1519      1518      1520      1522
      1519      1518      1520      1523      1520      1523      1526      1527
      1520      1523      1526      1528      1520      1523      1526      1529
      1521      1520      1523      1524      1521      1520      1523      1525
      1521      1520      1523      1526      1522      1520      1523      1524
      1522      1520      1523      1525      1522      1520      1523      1526
      1523      1526      1529      1530      1523      1526      1529      1531
      1523      1526      1529      1532      1524      1523      1526      1527
      1524      1523      1526      1528      1524      1523      1526      1529
      1525      1523      1526      1527      1525      1523      1526      1528
      1525      1523      1526      1529      1526      1529      1532      1533
      1526      1529      1532      1534      1526      1529      1532      1535
      1527      1526      1529      1530      1527      1526      1529      1531
      1527      1526      1529      1532      1528      1526      1529      1530
      1528      1526      1529      1531      1528      1526      1529      1532
      1529      1532      1535      1536      1529      1532      1535      1537
      1529      1532      1535      1538      1530      1529      1532      1533
      1530      1529      1532      1534      1530      1529      1532      1535
      1531      1529      1532      1533      1531      1529      1532      1534
      1531      1529      1532      1535      1532      1535      1538      1539
      1532      1535      1538      1540      1532      1535      1538      1541
      1533      1532      1535      1536      1533      1532      1535      1537
      1533      1532      1535      1538      1534      1532      1535      1536
      1534      1532      1535      1537      1534      1532      1535      1538
      1535      1538      1541      1542      1535      1538      1541      1543
      1535      1538      1541      1544      1536      1535      1538      1539
      1536      1535      1538      1540      1536      1535      1538      1541
      1537      1535      1538      1539      1537      1535      1538      1540
      1537      1535      1538      1541      1539      1538      1541      1542
      1539      1538      1541      1543      1539      1538      1541      1544
      1540      1538      1541      1542      1540      1538      1541      1543
      1540      1538      1541      1544      1545      1548      1551      1552
      1545      1548      1551      1553      1545      1548      1551      1554
      1546      1545      1548      1549      1546      1545      1548      1550
      1546      1545      1548      1551      1547      1545      1548      1549
      1547      1545      1548      1550      1547      1545      1548      1551
      1548      1551      1554      1555      1548      1551      1554      1556
      1548      1551      1554      1557      1549      1548      1551      1552
      1549      1548      1551      1553      1549      1548      1551      1554
      1550      1548      1551      1552      1550      1548      1551      1553
      1550      1548      1551      1554      1551      1554      1557      1558
      1551      1554      1557      1559      1551      1554      1557      1560
      1552      1551      1554      1555      1552      1551      1554      1556
      1552      1551      1554      1557      1553      1551      1554      1555
      1553      1551      1554      1556      1553      1551      1554      1557
      1554      1557      1560      1561      1554      1557      1560      1562
      1554      1557      1560      1563      1555      1554      1557      1558
      1555      1554      1557      1559      1555      1554      1557      1560
      1556      1554      1557      1558      1556      1554      1557      1559
      1556      1554      1557      1560      1557      1560      1563      1564
      1557      1560      1563      1565      1557      1560      1563      1566
      1558      1557      1560      1561      1558      1557      1560      1562
      1558      1557      1560      1563      1559      1557      1560      1561
      1559      1557      1560      1562      1559      1557      1560      1563
      1560      1563      1566      1567      1560      1563      1566      1568
      1560      1563      1566      1569      1561      1560      1563      1564
      1561      1560      1563      1565      1561      1560      1563      1566
      1562      1560      1563      1564      1562      1560      1563      1565
      1562      1560      1563      1566      1563      1566      1569      1570
      1563      1566      1569      1571      1563      1566      1569      1572
      1564      1563      1566      1567      1564      1563      1566      1568
      1564      1563      1566      1569      1565      1563      1566      1567
      1565      1563      1566      1568      1565      1563      1566      1569
      1566      1569      1572      1573      1566      1569      1572      1574
      1566      1569      1572      1575      1567      1566      1569      1570
      1567      1566      1569      1571      1567      1566      1569      1572
      1568      1566      1569      1570      1568      1566      1569      1571
      1568      1566      1569      1572      1569      1572      1575      1576
      1569      1572      1575      1577      1569      1572      1575      1578
      1570      1569      1572      1573      1570      1569      1572      1574
      1570      1569      1572      1575      1571      1569      1572      1573
      1571      1569      1572      1574      1571      1569      1572      1575
      1572      1575      1578      1579      1572      1575      1578      1580
      1572      1575      1578      1581      1573      1572      1575      1576
      1573      1572      1575      1577      1573      1572      1575      1578
      1574      1572      1575      1576      1574      1572      1575      1577
      1574      1572      1575      1578      1575      1578      1581      1582
      1575      1578      1581      1583      1575      1578      1581      1584
      1576      1575      1578      1579      1576      1575      1578      1580
      1576      1575      1578      1581      1577      1575      1578      1579
      1577      1575      1578      1580      1577      1575      1578      1581
      1578      1581      1584      1585      1578      1581      1584      1586
      1578      1581      1584      1587      1579      1578      1581      1582
      1579      1578      1581      1583      1579      1578      1581      1584
      1580      1578      1581      1582      1580      1578      1581      1583
      1580      1578      1581      1584      1582      1581      1584      1585
      1582      1581      1584      1586      1582      1581      1584      1587
      1583      1581      1584      1585      1583      1581      1584      1586
      1583      1581      1584      1587      1588      1592      1594      1595
      1588      1592      1594      1596      1588      1592      1597      1598
      1588      1592      1597      1599      1588      1592      1597      1603
      1589      1588      1592      1593      1589      1588      1592      1594
      1589      1588      1592      1597      1590      1588      1592      1593
      1590      1588      1592      1594      1590      1588      1592      1597
      1591      1588      1592      1593      1591      1588      1592      1594
      1591      1588      1592      1597      1592      1597      1603      1600
      1593      1592      1594      1595      1593      1592      1594      1596
      1593      1592      1597      1598      1593      1592      1597      1599
      1593      1592      1597      1603      1594      1592      1597      1598
      1594      1592      1597      1599      1594      1592      1597      1603
      1595      1594      1592      1597      1596      1594      1592      1597
      1597      1603      1600      1601      1597      1603      1600      1602
      1597      1603      1600      1604      1598      1597      1603      1600
      1599      1597      1603      1600      1600      1604      1605      1606
      1600      1604      1605      1607      1600      1604      1605      1608
      1601      1600      1604      1605      1602      1600      1604      1605
      1603      1600      1604      1605      1604      1605      1608      1609
      1604      1605      1608      1610      1604      1605      1608      1616
      1605      1608      1610      1611      1605      1608      1616      1617
      1605      1608      1616      1618      1605      1608      1616      1619
      1606      1605      1608      1609      1606      1605      1608      1610
      1606      1605      1608      1616      1607      1605      1608      1609
      1607      1605      1608      1610      1607      1605      1608      1616
      1608      1610      1611      1612      1608      1610      1611      1613
      1608      1616      1619      1620      1609      1608      1610      1611
      1609      1608      1616      1617      1609      1608      1616      1618
      1609      1608      1616      1619      1610      1608      1616      1617
      1610      1608      1616      1618      1610      1608      1616      1619
      1610      1611      1613      1614      1610      1611      1613      1615
      1610      1611      1613      1625      1611      1610      1608      1616
      1611      1613      1625      1626      1611      1613      1625      1627
      1611      1613      1625      1628      1612      1611      1613      1614
      1612      1611      1613      1615      1612      1611      1613      1625
      1613      1625      1628      1629      1613      1625      1628      1630
      1613      1625      1628      1631      1614      1613      1625      1626
      1614      1613      1625      1627      1614      1613      1625      1628
      1615      1613      1625      1626      1615      1613      1625      1627
      1615      1613      1625      1628      1616      1619      1620      1621
      1616      1619      1620      1622      1617      1616      1619      1620
      1618      1616      1619      1620      1619      1620      1622      1623
      1619      1620      1622      1624      1619      1620      1622      1672
      1620      1622      1672      1673      1620      1622      1672      1674
      1620      1622      1672      1675      1621      1620      1622      1623
      1621      1620      1622      1624      1621      1620      1622      1672
      1622      1672      1675      1676      1622      1672      1675      1677
      1622      1672      1675      1678      1623      1622      1672      1673
      1623      1622      1672      1674      1623      1622      1672      1675
      1624      1622      1672      1673      1624      1622      1672      1674
      1624      1622      1672      1675      1625      1628      1631      1632
      1625      1628      1631      1633      1625      1628      1631      1634
      1626      1625      1628      1629      1626      1625      1628      1630
      1626      1625      1628      1631      1627      1625      1628      1629
      1627      1625      1628      1630      1627      1625      1628      1631
      1628      1631      1634      1635      1628      1631      1634      1636
      1628      1631      1634      1637      1629      1628      1631      1632
      1629      1628      1631      1633      1629      1628      1631      1634
      1630      1628      1631      1632      1630      1628      1631      1633
      1630      1628      1631      1634      1631      1634      1637      1638
      1631      1634      1637      1639      1631      1634      1637      1640
      1632      1631      1634      1635      1632      1631      1634      1636
      1632      1631      1634      1637      1633      1631      1634      1635
      1633      1631      1634      1636      1633      1631      1634      1637
      1634      1637      1640      1641      1634      1637      1640      1642
      1634      1637      1640      1643      1635      1634      1637      1638
      1635      1634      1637      1639      1635      1634      1637      1640
      1636      1634      1637      1638      1636      1634      1637      1639
      1636      1634      1637      1640      1637      1640      1643      1644
      1637      1640      1643      1645      1638      1637      1640      1641
      1638      1637      1640      1642      1638      1637      1640      1643
      1639      1637      1640      1641      1639      1637      1640      1642
      1639      1637      1640      1643      1640      1643      1645      1646
      1640      1643      1645      1647      1641      1640      1643      1644
      1641      1640      1643      1645      1642      1640      1643      1644
      1642      1640      1643      1645      1643      1645      1647      1648
      1643      1645      1647      1649      1643      1645      1647      1650
      1644      1643      1645      1646      1644      1643      1645      1647
      1645      1647      1650      1651      1645      1647      1650      1652
      1645      1647      1650      1653      1646      1645      1647      1648
      1646      1645      1647      1649      1646      1645      1647      1650
      1647      1650      1653      1654      1647      1650      1653      1655
      1647      1650      1653      1656      1648      1647      1650      1651
      1648      1647      1650      1652      1648      1647      1650      1653
      1649      1647      1650      1651      1649      1647      1650      1652
      1649      1647      1650      1653      1650      1653      1656      1657
      1650      1653      1656      1658      1650      1653      1656      1659
      1651      1650      1653      1654      1651      1650      1653      1655
      1651      1650      1653      1656      1652      1650      1653      1654
      1652      1650      1653      1655      1652      1650      1653      1656
      1653      1656      1659      1660      1653      1656      1659      1661
      1653      1656      1659      1662      1654      1653      1656      1657
      1654      1653      1656      1658      1654      1653      1656      1659
      1655      1653      1656      1657      1655      1653      1656      1658
      1655      1653      1656      1659      1656      1659      1662      1663
      1656      1659      1662      1664      1656      1659      1662      1665
      1657      1656      1659      1660      1657      1656      1659      1661
      1657      1656      1659      1662      1658      1656      1659      1660
      1658      1656      1659      1661      1658      1656      1659      1662
      1659      1662      1665      1666      1659      1662      1665      1667
      1659      1662      1665      1668      1660      1659      1662      1663
      1660      1659      1662      1664      1660      1659      1662      1665
      1661      1659      1662      1663      1661      1659      1662      1664
      1661      1659      1662      1665      1662      1665      1668      1669
      1662      1665      1668      1670      1662      1665      1668      1671
      1663      1662      1665      1666      1663      1662      1665      1667
      1663      1662      1665      1668      1664      1662      1665      1666
      1664      1662      1665      1667      1664      1662      1665      1668
      1666      1665      1668      1669      1666      1665      1668      1670
      1666      1665      1668      1671      1667      1665      1668      1669
      1667      1665      1668      1670      1667      1665      1668      1671
      1672      1675      1678      1679      1672      1675      1678      1680
      1672      1675      1678      1681      1673      1672      1675      1676
      1673      1672      1675      1677      1673      1672      1675      1678
      1674      1672      1675      1676      1674      1672      1675      1677
      1674      1672      1675      1678      1675      1678      1681      1682
      1675      1678      1681      1683      1675      1678      1681      1684
      1676      1675      1678      1679      1676      1675      1678      1680
      1676      1675      1678      1681      1677      1675      1678      1679
      1677      1675      1678      1680      1677      1675      1678      1681
      1678      1681      1684      1685      1678      1681      1684      1686
      1678      1681      1684      1687      1679      1678      1681      1682
      1679      1678      1681      1683      1679      1678      1681      1684
      1680      1678      1681      1682      1680      1678      1681      1683
      1680      1678      1681      1684      1681      1684      1687      1688
      1681      1684      1687      1689      1681      1684      1687      1690
      1682      1681      1684      1685      1682      1681      1684      1686
      1682      1681      1684      1687      1683      1681      1684      1685
      1683      1681      1684      1686      1683      1681      1684      1687
      1684      1687      1690      1691      1684      1687      1690      1692
      1684      1687      1690      1693      1685      1684      1687      1688
      1685      1684      1687      1689      1685      1684      1687      1690
      1686      1684      1687      1688      1686      1684      1687      1689
      1686      1684      1687      1690      1687      1690      1693      1694
      1687      1690      1693      1695      1687      1690      1693      1696
      1688      1687      1690      1691      1688      1687      1690      1692
      1688      1687      1690      1693      1689      1687      1690      1691
      1689      1687      1690      1692      1689      1687      1690      1693
      1690      1693      1696      1697      1690      1693      1696      1698
      1690      1693      1696      1699      1691      1690      1693      1694
      1691      1690      1693      1695      1691      1690      1693      1696
      1692      1690      1693      1694      1692      1690      1693      1695
      1692      1690      1693      1696      1693      1696      1699      1700
      1693      1696      1699      1701      1693      1696      1699      1702
      1694      1693      1696      1697      1694      1693      1696      1698
      1694      1693      1696      1699      1695      1693      1696      1697
      1695      1693      1696      1698      1695      1693      1696      1699
      1696      1699      1702      1703      1696      1699      1702      1704
      1696      1699      1702      1705      1697      1696      1699      1700
      1697      1696      1699      1701      1697      1696      1699      1702
      1698      1696      1699      1700      1698      1696      1699      1701
      1698      1696      1699      1702      1699      1702      1705      1706
      1699      1702      1705      1707      1699      1702      1705      1708
      1700      1699      1702      1703      1700      1699      1702      1704
      1700      1699      1702      1705      1701      1699      1702      1703
      1701      1699      1702      1704      1701      1699      1702      1705
      1702      1705      1708      1709      1702      1705      1708      1710
      1702      1705      1708      1711      1703      1702      1705      1706
      1703      1702      1705      1707      1703      1702      1705      1708
      1704      1702      1705      1706      1704      1702      1705      1707
      1704      1702      1705      1708      1705      1708      1711      1712
      1705      1708      1711      1713      1705      1708      1711      1714
      1706      1705      1708      1709      1706      1705      1708      1710
      1706      1705      1708      1711      1707      1705      1708      1709
      1707      1705      1708      1710      1707      1705      1708      1711
      1709      1708      1711      1712      1709      1708      1711      1713
      1709      1708      1711      1714      1710      1708      1711      1712
      1710      1708      1711      1713      1710      1708      1711      1714
      1715      1716      1731      1732      1715      1716      1731      1733
      1715      1716      1731      1737      1716      1715      1719      1720
      1716      1715      1719      1721      1716      1715      1719      1722
      1716      1715      1723      1724      1716      1715      1723      1725
      1716      1715      1723      1726      1716      1715      1727      1728
      1716      1715      1727      1729      1716      1715      1727      1730
      1716      1731      1737      1734      1717      1716      1715      1719
      1717      1716      1715      1723      1717      1716      1715      1727
      1717      1716      1731      1732      1717      1716      1731      1733
      1717      1716      1731      1737      1718      1716      1715      1719
      1718      1716      1715      1723      1718      1716      1715      1727
      1718      1716      1731      1732      1718      1716      1731      1733
      1718      1716      1731      1737      1719      1715      1716      1731
      1719      1715      1723      1724      1719      1715      1723      1725
      1719      1715      1723      1726      1719      1715      1727      1728
      1719      1715      1727      1729      1719      1715      1727      1730
      1720      1719      1715      1723      1720      1719      1715      1727
      1721      1719      1715      1723      1721      1719      1715      1727
      1722      1719      1715      1723      1722      1719      1715      1727
      1723      1715      1716      1731      1723      1715      1727      1728
      1723      1715      1727      1729      1723      1715      1727      1730
      1724      1723      1715      1727      1725      1723      1715      1727
      1726      1723      1715      1727      1727      1715      1716      1731
      1731      1737      1734      1735      1731      1737      1734      1736
      1731      1737      1734      1738      1732      1731      1737      1734
      1733      1731      1737      1734      1734      1738      1739      1740
      1734      1738      1739      1741      1734      1738      1739      1742
      1735      1734      1738      1739      1736      1734      1738      1739
      1737      1734      1738      1739      1738      1739      1742      1743
      1738      1739      1742      1744      1738      1739      1742      1750
      1739      1742      1744      1745      1739      1742      1750      1751
      1739      1742      1750      1752      1739      1742      1750      1753
      1740      1739      1742      1743      1740      1739      1742      1744
      1740      1739      1742      1750      1741      1739      1742      1743
      1741      1739      1742      1744      1741      1739      1742      1750
      1742      1744      1745      1746      1742      1744      1745      1747
      1742      1750      1753      1754      1743      1742      1744      1745
      1743      1742      1750      1751      1743      1742      1750      1752
      1743      1742      1750      1753      1744      1742      1750      1751
      1744      1742      1750      1752      1744      1742      1750      1753
      1744      1745      1747      1748      1744      1745      1747      1749
      1744      1745      1747      1759      1745      1744      1742      1750
      1745      1747      1759      1760      1745      1747      1759      1761
      1745      1747      1759      1762      1746      1745      1747      1748
      1746      1745      1747      1749      1746      1745      1747      1759
      1747      1759      1762      1763      1747      1759      1762      1764
      1747      1759      1762      1765      1748      1747      1759      1760
      1748      1747      1759      1761      1748      1747      1759      1762
      1749      1747      1759      1760      1749      1747      1759      1761
      1749      1747      1759      1762      1750      1753      1754      1755
      1750      1753      1754      1756      1751      1750      1753      1754
      1752      1750      1753      1754      1753      1754      1756      1757
      1753      1754      1756      1758      1753      1754      1756      1806
      1754      1756      1806      1807      1754      1756      1806      1808
      1754      1756      1806      1809      1755      1754      1756      1757
      1755      1754      1756      1758      1755      1754      1756      1806
      1756      1806      1809      1810      1756      1806      1809      1811
      1756      1806      1809      1812      1757      1756      1806      1807
      1757      1756      1806      1808      1757      1756      1806      1809
      1758      1756      1806      1807      1758      1756      1806      1808
      1758      1756      1806      1809      1759      1762      1765      1766
      1759      1762      1765      1767      1759      1762      1765      1768
      1760      1759      1762      1763      1760      1759      1762      1764
      1760      1759      1762      1765      1761      1759      1762      1763
      1761      1759      1762      1764      1761      1759      1762      1765
      1762      1765      1768      1769      1762      1765      1768      1770
      1762      1765      1768      1771      1763      1762      1765      1766
      1763      1762      1765      1767      1763      1762      1765      1768
      1764      1762      1765      1766      1764      1762      1765      1767
      1764      1762      1765      1768      1765      1768      1771      1772
      1765      1768      1771      1773      1765      1768      1771      1774
      1766      1765      1768      1769      1766      1765      1768      1770
      1766      1765      1768      1771      1767      1765      1768      1769
      1767      1765      1768      1770      1767      1765      1768      1771
      1768      1771      1774      1775      1768      1771      1774      1776
      1768      1771      1774      1777      1769      1768      1771      1772
      1769      1768      1771      1773      1769      1768      1771      1774
      1770      1768      1771      1772      1770      1768      1771      1773
      1770      1768      1771      1774      1771      1774      1777      1778
      1771      1774      1777      1779      1772      1771      1774      1775
      1772      1771      1774      1776      1772      1771      1774      1777
      1773      1771      1774      1775      1773      1771      1774      1776
      1773      1771      1774      1777      1774      1777      1779      1780
      1774      1777      1779      1781      1775      1774      1777      1778
      1775      1774      1777      1779      1776      1774      1777      1778
      1776      1774      1777      1779      1777      1779      1781      1782
      1777      1779      1781      1783      1777      1779      1781      1784
      1778      1777      1779      1780      1778      1777      1779      1781
      1779      1781      1784      1785      1779      1781      1784      1786
      1779      1781      1784      1787      1780      1779      1781      1782
      1780      1779      1781      1783      1780      1779      1781      1784
      1781      1784      1787      1788      1781      1784      1787      1789
      1781      1784      1787      1790      1782      1781      1784      1785
      1782      1781      1784      1786      1782      1781      1784      1787
      1783      1781      1784      1785      1783      1781      1784      1786
      1783      1781      1784      1787      1784      1787      1790      1791
      1784      1787      1790      1792      1784      1787      1790      1793
      1785      1784      1787      1788      1785      1784      1787      1789
      1785      1784      1787      1790      1786      1784      1787      1788
      1786      1784      1787      1789      1786      1784      1787      1790
      1787      1790      1793      1794      1787      1790      1793      1795
      1787      1790      1793      1796      1788      1787      1790      1791
      1788      1787      1790      1792      1788      1787      1790      1793
      1789      1787      1790      1791      1789      1787      1790      1792
      1789      1787      1790      1793      1790      1793      1796      1797
      1790      1793      1796      1798      1790      1793      1796      1799
      1791      1790      1793      1794      1791      1790      1793      1795
      1791      1790      1793      1796      1792      1790      1793      1794
      1792      1790      1793      1795      1792      1790      1793      1796
      1793      1796      1799      1800      1793      1796      1799      1801
      1793      1796      1799      1802      1794      1793      1796      1797
      1794      1793      1796      1798      1794      1793      1796      1799
      1795      1793      1796      1797      1795      1793      1796      1798
      1795      1793      1796      1799      1796      1799      1802      1803
      1796      1799      1802      1804      1796      1799      1802      1805
      1797      1796      1799      1800      1797      1796      1799      1801
      1797      1796      1799      1802      1798      1796      1799      1800
      1798      1796      1799      1801      1798      1796      1799      1802
      1800      1799      1802      1803      1800      1799      1802      1804
      1800      1799      1802      1805      1801      1799      1802      1803
      1801      1799      1802      1804      1801      1799      1802      1805
      1806      1809      1812      1813      1806      1809      1812      1814
      1806      1809      1812      1815      1807      1806      1809      1810
      1807      1806      1809      1811      1807      1806      1809      1812
      1808      1806      1809      1810      1808      1806      1809      1811
      1808      1806      1809      1812      1809      1812      1815      1816
      1809      1812      1815      1817      1809      1812      1815      1818
      1810      1809      1812      1813      1810      1809      1812      1814
      1810      1809      1812      1815      1811      1809      1812      1813
      1811      1809      1812      1814      1811      1809      1812      1815
      1812      1815      1818      1819      1812      1815      1818      1820
      1812      1815      1818      1821      1813      1812      1815      1816
      1813      1812      1815      1817      1813      1812      1815      1818
      1814      1812      1815      1816      1814      1812      1815      1817
      1814      1812      1815      1818      1815      1818      1821      1822
      1815      1818      1821      1823      1815      1818      1821      1824
      1816      1815      1818      1819      1816      1815      1818      1820
      1816      1815      1818      1821      1817      1815      1818      1819
      1817      1815      1818      1820      1817      1815      1818      1821
      1818      1821      1824      1825      1818      1821      1824      1826
      1818      1821      1824      1827      1819      1818      1821      1822
      1819      1818      1821      1823      1819      1818      1821      1824
      1820      1818      1821      1822      1820      1818      1821      1823
      1820      1818      1821      1824      1821      1824      1827      1828
      1821      1824      1827      1829      1821      1824      1827      1830
      1822      1821      1824      1825      1822      1821      1824      1826
      1822      1821      1824      1827      1823      1821      1824      1825
      1823      1821      1824      1826      1823      1821      1824      1827
      1824      1827      1830      1831      1824      1827      1830      1832
      1824      1827      1830      1833      1825      1824      1827      1828
      1825      1824      1827      1829      1825      1824      1827      1830
      1826      1824      1827      1828      1826      1824      1827      1829
      1826      1824      1827      1830      1827      1830      1833      1834
      1827      1830      1833      1835      1827      1830      1833      1836
      1828      1827      1830      1831      1828      1827      1830      1832
      1828      1827      1830      1833      1829      1827      1830      1831
      1829      1827      1830      1832      1829      1827      1830      1833
      1830      1833      1836      1837      1830      1833      1836      1838
      1830      1833      1836      1839      1831      1830      1833      1834
      1831      1830      1833      1835      1831      1830      1833      1836
      1832      1830      1833      1834      1832      1830      1833      1835
      1832      1830      1833      1836      1833      1836      1839      1840
      1833      1836      1839      1841      1833      1836      1839      1842
      1834      1833      1836      1837      1834      1833      1836      1838
      1834      1833      1836      1839      1835      1833      1836      1837
      1835      1833      1836      1838      1835      1833      1836      1839
      1836      1839      1842      1843      1836      1839      1842      1844
      1836      1839      1842      1845      1837      1836      1839      1840
      1837      1836      1839      1841      1837      1836      1839      1842
      1838      1836      1839      1840      1838      1836      1839      1841
      1838      1836      1839      1842      1839      1842      1845      1846
      1839      1842      1845      1847      1839      1842      1845      1848
      1840      1839      1842      1843      1840      1839      1842      1844
      1840      1839      1842      1845      1841      1839      1842      1843
      1841      1839      1842      1844      1841      1839      1842      1845
      1843      1842      1845      1846      1843      1842      1845      1847
      1843      1842      1845      1848      1844      1842      1845      1846
      1844      1842      1845      1847      1844      1842      1845      1848
      1849      1850      1865      1866      1849      1850      1865      1867
      1849      1850      1865      1871      1850      1849      1853      1854
      1850      1849      1853      1855      1850      1849      1853      1856
      1850      1849      1857      1858      1850      1849      1857      1859
      1850      1849      1857      1860      1850      1849      1861      1862
      1850      1849      1861      1863      1850      1849      1861      1864
      1850      1865      1871      1868      1851      1850      1849      1853
      1851      1850      1849      1857      1851      1850      1849      1861
      1851      1850      1865      1866      1851      1850      1865      1867
      1851      1850      1865      1871      1852      1850      1849      1853
      1852      1850      1849      1857      1852      1850      1849      1861
      1852      1850      1865      1866      1852      1850      1865      1867
      1852      1850      1865      1871      1853      1849      1850      1865
      1853      1849      1857      1858      1853      1849      1857      1859
      1853      1849      1857      1860      1853      1849      1861      1862
      1853      1849      1861      1863      1853      1849      1861      1864
      1854      1853      1849      1857      1854      1853      1849      1861
      1855      1853      1849      1857      1855      1853      1849      1861
      1856      1853      1849      1857      1856      1853      1849      1861
      1857      1849      1850      1865      1857      1849      1861      1862
      1857      1849      1861      1863      1857      1849      1861      1864
      1858      1857      1849      1861      1859      1857      1849      1861
      1860      1857      1849      1861      1861      1849      1850      1865
      1865      1871      1868      1869      1865      1871      1868      1870
      1865      1871      1868      1872      1866      1865      1871      1868
      1867      1865      1871      1868      1868      1872      1873      1874
      1868      1872      1873      1875      1868      1872      1873      1876
      1869      1868      1872      1873      1870      1868      1872      1873
      1871      1868      1872      1873      1872      1873      1876      1877
      1872      1873      1876      1878      1872      1873      1876      1884
      1873      1876      1878      1879      1873      1876      1884      1885
      1873      1876      1884      1886      1873      1876      1884      1887
      1874      1873      1876      1877      1874      1873      1876      1878
      1874      1873      1876      1884      1875      1873      1876      1877
      1875      1873      1876      1878      1875      1873      1876      1884
      1876      1878      1879      1880      1876      1878      1879      1881
      1876      1884      1887      1888      1877      1876      1878      1879
      1877      1876      1884      1885      1877      1876      1884      1886
      1877      1876      1884      1887      1878      1876      1884      1885
      1878      1876      1884      1886      1878      1876      1884      1887
      1878      1879      1881      1882      1878      1879      1881      1883
      1878      1879      1881      1893      1879      1878      1876      1884
      1879      1881      1893      1894      1879      1881      1893      1895
      1879      1881      1893      1896      1880      1879      1881      1882
      1880      1879      1881      1883      1880      1879      1881      1893
      1881      1893      1896      1897      1881      1893      1896      1898
      1881      1893      1896      1899      1882      1881      1893      1894
      1882      1881      1893      1895      1882      1881      1893      1896
      1883      1881      1893      1894      1883      1881      1893      1895
      1883      1881      1893      1896      1884      1887      1888      1889
      1884      1887      1888      1890      1885      1884      1887      1888
      1886      1884      1887      1888      1887      1888      1890      1891
      1887      1888      1890      1892      1887      1888      1890      1940
      1888      1890      1940      1941      1888      1890      1940      1942
      1888      1890      1940      1943      1889      1888      1890      1891
      1889      1888      1890      1892      1889      1888      1890      1940
      1890      1940      1943      1944      1890      1940      1943      1945
      1890      1940      1943      1946      1891      1890      1940      1941
      1891      1890      1940      1942      1891      1890      1940      1943
      1892      1890      1940      1941      1892      1890      1940      1942
      1892      1890      1940      1943      1893      1896      1899      1900
      1893      1896      1899      1901      1893      1896      1899      1902
      1894      1893      1896      1897      1894      1893      1896      1898
      1894      1893      1896      1899      1895      1893      1896      1897
      1895      1893      1896      1898      1895      1893      1896      1899
      1896      1899      1902      1903      1896      1899      1902      1904
      1896      1899      1902      1905      1897      1896      1899      1900
      1897      1896      1899      1901      1897      1896      1899      1902
      1898      1896      1899      1900      1898      1896      1899      1901
      1898      1896      1899      1902      1899      1902      1905      1906
      1899      1902      1905      1907      1899      1902      1905      1908
      1900      1899      1902      1903      1900      1899      1902      1904
      1900      1899      1902      1905      1901      1899      1902      1903
      1901      1899      1902      1904      1901      1899      1902      1905
      1902      1905      1908      1909      1902      1905      1908      1910
      1902      1905      1908      1911      1903      1902      1905      1906
      1903      1902      1905      1907      1903      1902      1905      1908
      1904      1902      1905      1906      1904      1902      1905      1907
      1904      1902      1905      1908      1905      1908      1911      1912
      1905      1908      1911      1913      1906      1905      1908      1909
      1906      1905      1908      1910      1906      1905      1908      1911
      1907      1905      1908      1909      1907      1905      1908      1910
      1907      1905      1908      1911      1908      1911      1913      1914
      1908      1911      1913      1915      1909      1908      1911      1912
      1909      1908      1911      1913      1910      1908      1911      1912
      1910      1908      1911      1913      1911      1913      1915      1916
      1911      1913      1915      1917      1911      1913      1915      1918
      1912      1911      1913      1914      1912      1911      1913      1915
      1913      1915      1918      1919      1913      1915      1918      1920
      1913      1915      1918      1921      1914      1913      1915      1916
      1914      1913      1915      1917      1914      1913      1915      1918
      1915      1918      1921      1922      1915      1918      1921      1923
      1915      1918      1921      1924      1916      1915      1918      1919
      1916      1915      1918      1920      1916      1915      1918      1921
      1917      1915      1918      1919      1917      1915      1918      1920
      1917      1915      1918      1921      1918      1921      1924      1925
      1918      1921      1924      1926      1918      1921      1924      1927
      1919      1918      1921      1922      1919      1918      1921      1923
      1919      1918      1921      1924      1920      1918      1921      1922
      1920      1918      1921      1923      1920      1918      1921      1924
      1921      1924      1927      1928      1921      1924      1927      1929
      1921      1924      1927      1930      1922      1921      1924      1925
      1922      1921      1924      1926      1922      1921      1924      1927
      1923      1921      1924      1925      1923      1921      1924      1926
      1923      1921      1924      1927      1924      1927      1930      1931
      1924      1927      1930      1932      1924      1927      1930      1933
      1925      1924      1927      1928      1925      1924      1927      1929
      1925      1924      1927      1930      1926      1924      1927      1928
      1926      1924      1927      1929      1926      1924      1927      1930
      1927      1930      1933      1934      1927      1930      1933      1935
      1927      1930      1933      1936      1928      1927      1930      1931
      1928      1927      1930      1932      1928      1927      1930      1933
      1929      1927      1930      1931      1929      1927      1930      1932
      1929      1927      1930      1933      1930      1933      1936      1937
      1930      1933      1936      1938      1930      1933      1936      1939
      1931      1930      1933      1934      1931      1930      1933      1935
      1931      1930      1933      1936      1932      1930      1933      1934
      1932      1930      1933      1935      1932      1930      1933      1936
      1934      1933      1936      1937      1934      1933      1936      1938
      1934      1933      1936      1939      1935      1933      1936      1937
      1935      1933      1936      1938      1935      1933      1936      1939
      1940      1943      1946      1947      1940      1943      1946      1948
      1940      1943      1946      1949      1941      1940      1943      1944
      1941      1940      1943      1945      1941      1940      1943      1946
      1942      1940      1943      1944      1942      1940      1943      1945
      1942      1940      1943      1946      1943      1946      1949      1950
      1943      1946      1949      1951      1943      1946      1949      1952
      1944      1943      1946      1947      1944      1943      1946      1948
      1944      1943      1946      1949      1945      1943      1946      1947
      1945      1943      1946      1948      1945      1943      1946      1949
      1946      1949      1952      1953      1946      1949      1952      1954
      1946      1949      1952      1955      1947      1946      1949      1950
      1947      1946      1949      1951      1947      1946      1949      1952
      1948      1946      1949      1950      1948      1946      1949      1951
      1948      1946      1949      1952      1949      1952      1955      1956
      1949      1952      1955      1957      1949      1952      1955      1958
      1950      1949      1952      1953      1950      1949      1952      1954
      1950      1949      1952      1955      1951      1949      1952      1953
      1951      1949      1952      1954      1951      1949      1952      1955
      1952      1955      1958      1959      1952      1955      1958      1960
      1952      1955      1958      1961      1953      1952      1955      1956
      1953      1952      1955      1957      1953      1952      1955      1958
      1954      1952      1955      1956      1954      1952      1955      1957
      1954      1952      1955      1958      1955      1958      1961      1962
      1955      1958      1961      1963      1955      1958      1961      1964
      1956      1955      1958      1959      1956      1955      1958      1960
      1956      1955      1958      1961      1957      1955      1958      1959
      1957      1955      1958      1960      1957      1955      1958      1961
      1958      1961      1964      1965      1958      1961      1964      1966
      1958      1961      1964      1967      1959      1958      1961      1962
      1959      1958      1961      1963      1959      1958      1961      1964
      1960      1958      1961      1962      1960      1958      1961      1963
      1960      1958      1961      1964      1961      1964      1967      1968
      1961      1964      1967      1969      1961      1964      1967      1970
      1962      1961      1964      1965      1962      1961      1964      1966
      1962      1961      1964      1967      1963      1961      1964      1965
      1963      1961      1964      1966      1963      1961      1964      1967
      1964      1967      1970      1971      1964      1967      1970      1972
      1964      1967      1970      1973      1965      1964      1967      1968
      1965      1964      1967      1969      1965      1964      1967      1970
      1966      1964      1967      1968      1966      1964      1967      1969
      1966      1964      1967      1970      1967      1970      1973      1974
      1967      1970      1973      1975      1967      1970      1973      1976
      1968      1967      1970      1971      1968      1967      1970      1972
      1968      1967      1970      1973      1969      1967      1970      1971
      1969      1967      1970      1972      1969      1967      1970      1973
      1970      1973      1976      1977      1970      1973      1976      1978
      1970      1973      1976      1979      1971      1970      1973      1974
      1971      1970      1973      1975      1971      1970      1973      1976
      1972      1970      1973      1974      1972      1970      1973      1975
      1972      1970      1973      1976      1973      1976      1979      1980
      1973      1976      1979      1981      1973      1976      1979      1982
      1974      1973      1976      1977      1974      1973      1976      1978
      1974      1973      1976      1979      1975      1973      1976      1977
      1975      1973      1976      1978      1975      1973      1976      1979
      1977      1976      1979      1980      1977      1976      1979      1981
      1977      1976      1979      1982      1978      1976      1979      1980
      1978      1976      1979      1981      1978      1976      1979      1982
      1983      1984      1999      2000      1983      1984      1999      2001
      1983      1984      1999      2005      1984      1983      1987      1988
      1984      1983      1987      1989      1984      1983      1987      1990
      1984      1983      1991      1992      1984      1983      1991      1993
      1984      1983      1991      1994      1984      1983      1995      1996
      1984      1983      1995      1997      1984      1983      1995      1998
      1984      1999      2005      2002      1985      1984      1983      1987
      1985      1984      1983      1991      1985      1984      1983      1995
      1985      1984      1999      2000      1985      1984      1999      2001
      1985      1984      1999      2005      1986      1984      1983      1987
      1986      1984      1983      1991      1986      1984      1983      1995
      1986      1984      1999      2000      1986      1984      1999      2001
      1986      1984      1999      2005      1987      1983      1984      1999
      1987      1983      1991      1992      1987      1983      1991      1993
      1987      1983      1991      1994      1987      1983      1995      1996
      1987      1983      1995      1997      1987      1983      1995      1998
      1988      1987      1983      1991      1988      1987      1983      1995
      1989      1987      1983      1991      1989      1987      1983      1995
      1990      1987      1983      1991      1990      1987      1983      1995
      1991      1983      1984      1999      1991      1983      1995      1996
      1991      1983      1995      1997      1991      1983      1995      1998
      1992      1991      1983      1995      1993      1991      1983      1995
      1994      1991      1983      1995      1995      1983      1984      1999
      1999      2005      2002      2003      1999      2005      2002      2004
      1999      2005      2002      2006      2000      1999      2005      2002
      2001      1999      2005      2002      2002      2006      2007      2008
      2002      2006      2007      2009      2002      2006      2007      2010
      2003      2002      2006      2007      2004      2002      2006      2007
      2005      2002      2006      2007      2006      2007      2010      2011
      2006      2007      2010      2012      2006      2007      2010      2018
      2007      2010      2012      2013      2007      2010      2018      2019
      2007      2010      2018      2020      2007      2010      2018      2021
      2008      2007      2010      2011      2008      2007      2010      2012
      2008      2007      2010      2018      2009      2007      2010      2011
      2009      2007      2010      2012      2009      2007      2010      2018
      2010      2012      2013      2014      2010      2012      2013      2015
      2010      2018      2021      2022      2011      2010      2012      2013
      2011      2010      2018      2019      2011      2010      2018      2020
      2011      2010      2018      2021      2012      2010      2018      2019
      2012      2010      2018      2020      2012      2010      2018      2021
      2012      2013      2015      2016      2012      2013      2015      2017
      2012      2013      2015      2027      2013      2012      2010      2018
      2013      2015      2027      2028      2013      2015      2027      2029
      2013      2015      2027      2030      2014      2013      2015      2016
      2014      2013      2015      2017      2014      2013      2015      2027
      2015      2027      2030      2031      2015      2027      2030      2032
      2015      2027      2030      2033      2016      2015      2027      2028
      2016      2015      2027      2029      2016      2015      2027      2030
      2017      2015      2027      2028      2017      2015      2027      2029
      2017      2015      2027      2030      2018      2021      2022      2023
      2018      2021      2022      2024      2019      2018      2021      2022
      2020      2018      2021      2022      2021      2022      2024      2025
      2021      2022      2024      2026      2021      2022      2024      2074
      2022      2024      2074      2075      2022      2024      2074      2076
      2022      2024      2074      2077      2023      2022      2024      2025
      2023      2022      2024      2026      2023      2022      2024      2074
      2024      2074      2077      2078      2024      2074      2077      2079
      2024      2074      2077      2080      2025      2024      2074      2075
      2025      2024      2074      2076      2025      2024      2074      2077
      2026      2024      2074      2075      2026      2024      2074      2076
      2026      2024      2074      2077      2027      2030      2033      2034
      2027      2030      2033      2035      2027      2030      2033      2036
      2028      2027      2030      2031      2028      2027      2030      2032
      2028      2027      2030      2033      2029      2027      2030      2031
      2029      2027      2030      2032      2029      2027      2030      2033
      2030      2033      2036      2037      2030      2033      2036      2038
      2030      2033      2036      2039      2031      2030      2033      2034
      2031      2030      2033      2035      2031      2030      2033      2036
      2032      2030      2033      2034      2032      2030      2033      2035
      2032      2030      2033      2036      2033      2036      2039      2040
      2033      2036      2039      2041      2033      2036      2039      2042
      2034      2033      2036      2037      2034      2033      2036      2038
      2034      2033      2036      2039      2035      2033      2036      2037
      2035      2033      2036      2038      2035      2033      2036      2039
      2036      2039      2042      2043      2036      2039      2042      2044
      2036      2039      2042      2045      2037      2036      2039      2040
      2037      2036      2039      2041      2037      2036      2039      2042
      2038      2036      2039      2040      2038      2036      2039      2041
      2038      2036      2039      2042      2039      2042      2045      2046
      2039      2042      2045      2047      2040      2039      2042      2043
      2040      2039      2042      2044      2040      2039      2042      2045
      2041      2039      2042      2043      2041      2039      2042      2044
      2041      2039      2042      2045      2042      2045      2047      2048
      2042      2045      2047      2049      2043      2042      2045      2046
      2043      2042      2045      2047      2044      2042      2045      2046
      2044      2042      2045      2047      2045      2047      2049      2050
      2045      2047      2049      2051      2045      2047      2049      2052
      2046      2045      2047      2048      2046      2045      2047      2049
      2047      2049      2052      2053      2047      2049      2052      2054
      2047      2049      2052      2055      2048      2047      2049      2050
      2048      2047      2049      2051      2048      2047      2049      2052
      2049      2052      2055      2056      2049      2052      2055      2057
      2049      2052      2055      2058      2050      2049      2052      2053
      2050      2049      2052      2054      2050      2049      2052      2055
      2051      2049      2052      2053      2051      2049      2052      2054
      2051      2049      2052      2055      2052      2055      2058      2059
      2052      2055      2058      2060      2052      2055      2058      2061
      2053      2052      2055      2056      2053      2052      2055      2057
      2053      2052      2055      2058      2054      2052      2055      2056
      2054      2052      2055      2057      2054      2052      2055      2058
      2055      2058      2061      2062      2055      2058      2061      2063
      2055      2058      2061      2064      2056      2055      2058      2059
      2056      2055      2058      2060      2056      2055      2058      2061
      2057      2055      2058      2059      2057      2055      2058      2060
      2057      2055      2058      2061      2058      2061      2064      2065
      2058      2061      2064      2066      2058      2061      2064      2067
      2059      2058      2061      2062      2059      2058      2061      2063
      2059      2058      2061      2064      2060      2058      2061      2062
      2060      2058      2061      2063      2060      2058      2061      2064
      2061      2064      2067      2068      2061      2064      2067      2069
      2061      2064      2067      2070      2062      2061      2064      2065
      2062      2061      2064      2066      2062      2061      2064      2067
      2063      2061      2064      2065      2063      2061      2064      2066
      2063      2061      2064      2067      2064      2067      2070      2071
      2064      2067      2070      2072      2064      2067      2070      2073
      2065      2064      2067      2068      2065      2064      2067      2069
      2065      2064      2067      2070      2066      2064      2067      2068
      2066      2064      2067      2069      2066      2064      2067      2070
      2068      2067      2070      2071      2068      2067      2070      2072
      2068      2067      2070      2073      2069      2067      2070      2071
      2069      2067      2070      2072      2069      2067      2070      2073
      2074      2077      2080      2081      2074      2077      2080      2082
      2074      2077      2080      2083      2075      2074      2077      2078
      2075      2074      2077      2079      2075      2074      2077      2080
      2076      2074      2077      2078      2076      2074      2077      2079
      2076      2074      2077      2080      2077      2080      2083      2084
      2077      2080      2083      2085      2077      2080      2083      2086
      2078      2077      2080      2081      2078      2077      2080      2082
      2078      2077      2080      2083      2079      2077      2080      2081
      2079      2077      2080      2082      2079      2077      2080      2083
      2080      2083      2086      2087      2080      2083      2086      2088
      2080      2083      2086      2089      2081      2080      2083      2084
      2081      2080      2083      2085      2081      2080      2083      2086
      2082      2080      2083      2084      2082      2080      2083      2085
      2082      2080      2083      2086      2083      2086      2089      2090
      2083      2086      2089      2091      2083      2086      2089      2092
      2084      2083      2086      2087      2084      2083      2086      2088
      2084      2083      2086      2089      2085      2083      2086      2087
      2085      2083      2086      2088      2085      2083      2086      2089
      2086      2089      2092      2093      2086      2089      2092      2094
      2086      2089      2092      2095      2087      2086      2089      2090
      2087      2086      2089      2091      2087      2086      2089      2092
      2088      2086      2089      2090      2088      2086      2089      2091
      2088      2086      2089      2092      2089      2092      2095      2096
      2089      2092      2095      2097      2089      2092      2095      2098
      2090      2089      2092      2093      2090      2089      2092      2094
      2090      2089      2092      2095      2091      2089      2092      2093
      2091      2089      2092      2094      2091      2089      2092      2095
      2092      2095      2098      2099      2092      2095      2098      2100
      2092      2095      2098      2101      2093      2092      2095      2096
      2093      2092      2095      2097      2093      2092      2095      2098
      2094      2092      2095      2096      2094      2092      2095      2097
      2094      2092      2095      2098      2095      2098      2101      2102
      2095      2098      2101      2103      2095      2098      2101      2104
      2096      2095      2098      2099      2096      2095      2098      2100
      2096      2095      2098      2101      2097      2095      2098      2099
      2097      2095      2098      2100      2097      2095      2098      2101
      2098      2101      2104      2105      2098      2101      2104      2106
      2098      2101      2104      2107      2099      2098      2101      2102
      2099      2098      2101      2103      2099      2098      2101      2104
      2100      2098      2101      2102      2100      2098      2101      2103
      2100      2098      2101      2104      2101      2104      2107      2108
      2101      2104      2107      2109      2101      2104      2107      2110
      2102      2101      2104      2105      2102      2101      2104      2106
      2102      2101      2104      2107      2103      2101      2104      2105
      2103      2101      2104      2106      2103      2101      2104      2107
      2104      2107      2110      2111      2104      2107      2110      2112
      2104      2107      2110      2113      2105      2104      2107      2108
      2105      2104      2107      2109      2105      2104      2107      2110
      2106      2104      2107      2108      2106      2104      2107      2109
      2106      2104      2107      2110      2107      2110      2113      2114
      2107      2110      2113      2115      2107      2110      2113      2116
      2108      2107      2110      2111      2108      2107      2110      2112
      2108      2107      2110      2113      2109      2107      2110      2111
      2109      2107      2110      2112      2109      2107      2110      2113
      2111      2110      2113      2114      2111      2110      2113      2115
      2111      2110      2113      2116      2112      2110      2113      2114
      2112      2110      2113      2115      2112      2110      2113      2116
      2117      2118      2133      2134      2117      2118      2133      2135
      2117      2118      2133      2139      2118      2117      2121      2122
      2118      2117      2121      2123      2118      2117      2121      2124
      2118      2117      2125      2126      2118      2117      2125      2127
      2118      2117      2125      2128      2118      2117      2129      2130
      2118      2117      2129      2131      2118      2117      2129      2132
      2118      2133      2139      2136      2119      2118      2117      2121
      2119      2118      2117      2125      2119      2118      2117      2129
      2119      2118      2133      2134      2119      2118      2133      2135
      2119      2118      2133      2139      2120      2118      2117      2121
      2120      2118      2117      2125      2120      2118      2117      2129
      2120      2118      2133      2134      2120      2118      2133      2135
      2120      2118      2133      2139      2121      2117      2118      2133
      2121      2117      2125      2126      2121      2117      2125      2127
      2121      2117      2125      2128      2121      2117      2129      2130
      2121      2117      2129      2131      2121      2117      2129      2132
      2122      2121      2117      2125      2122      2121      2117      2129
      2123      2121      2117      2125      2123      2121      2117      2129
      2124      2121      2117      2125      2124      2121      2117      2129
      2125      2117      2118      2133      2125      2117      2129      2130
      2125      2117      2129      2131      2125      2117      2129      2132
      2126      2125      2117      2129      2127      2125      2117      2129
      2128      2125      2117      2129      2129      2117      2118      2133
      2133      2139      2136      2137      2133      2139      2136      2138
      2133      2139      2136      2140      2134      2133      2139      2136
      2135      2133      2139      2136      2136      2140      2141      2142
      2136      2140      2141      2143      2136      2140      2141      2144
      2137      2136      2140      2141      2138      2136      2140      2141
      2139      2136      2140      2141      2140      2141      2144      2145
      2140      2141      2144      2146      2140      2141      2144      2152
      2141      2144      2146      2147      2141      2144      2152      2153
      2141      2144      2152      2154      2141      2144      2152      2155
      2142      2141      2144      2145      2142      2141      2144      2146
      2142      2141      2144      2152      2143      2141      2144      2145
      2143      2141      2144      2146      2143      2141      2144      2152
      2144      2146      2147      2148      2144      2146      2147      2149
      2144      2152      2155      2156      2145      2144      2146      2147
      2145      2144      2152      2153      2145      2144      2152      2154
      2145      2144      2152      2155      2146      2144      2152      2153
      2146      2144      2152      2154      2146      2144      2152      2155
      2146      2147      2149      2150      2146      2147      2149      2151
      2146      2147      2149      2161      2147      2146      2144      2152
      2147      2149      2161      2162      2147      2149      2161      2163
      2147      2149      2161      2164      2148      2147      2149      2150
      2148      2147      2149      2151      2148      2147      2149      2161
      2149      2161      2164      2165      2149      2161      2164      2166
      2149      2161      2164      2167      2150      2149      2161      2162
      2150      2149      2161      2163      2150      2149      2161      2164
      2151      2149      2161      2162      2151      2149      2161      2163
      2151      2149      2161      2164      2152      2155      2156      2157
      2152      2155      2156      2158      2153      2152      2155      2156
      2154      2152      2155      2156      2155      2156      2158      2159
      2155      2156      2158      2160      2155      2156      2158      2208
      2156      2158      2208      2209      2156      2158      2208      2210
      2156      2158      2208      2211      2157      2156      2158      2159
      2157      2156      2158      2160      2157      2156      2158      2208
      2158      2208      2211      2212      2158      2208      2211      2213
      2158      2208      2211      2214      2159      2158      2208      2209
      2159      2158      2208      2210      2159      2158      2208      2211
      2160      2158      2208      2209      2160      2158      2208      2210
      2160      2158      2208      2211      2161      2164      2167      2168
      2161      2164      2167      2169      2161      2164      2167      2170
      2162      2161      2164      2165      2162      2161      2164      2166
      2162      2161      2164      2167      2163      2161      2164      2165
      2163      2161      2164      2166      2163      2161      2164      2167
      2164      2167      2170      2171      2164      2167      2170      2172
      2164      2167      2170      2173      2165      2164      2167      2168
      2165      2164      2167      2169      2165      2164      2167      2170
      2166      2164      2167      2168      2166      2164      2167      2169
      2166      2164      2167      2170      2167      2170      2173      2174
      2167      2170      2173      2175      2167      2170      2173      2176
      2168      2167      2170      2171      2168      2167      2170      2172
      2168      2167      2170      2173      2169      2167      2170      2171
      2169      2167      2170      2172      2169      2167      2170      2173
      2170      2173      2176      2177      2170      2173      2176      2178
      2170      2173      2176      2179      2171      2170      2173      2174
      2171      2170      2173      2175      2171      2170      2173      2176
      2172      2170      2173      2174      2172      2170      2173      2175
      2172      2170      2173      2176      2173      2176      2179      2180
      2173      2176      2179      2181      2174      2173      2176      2177
      2174      2173      2176      2178      2174      2173      2176      2179
      2175      2173      2176      2177      2175      2173      2176      2178
      2175      2173      2176      2179      2176      2179      2181      2182
      2176      2179      2181      2183      2177      2176      2179      2180
      2177      2176      2179      2181      2178      2176      2179      2180
      2178      2176      2179      2181      2179      2181      2183      2184
      2179      2181      2183      2185      2179      2181      2183      2186
      2180      2179      2181      2182      2180      2179      2181      2183
      2181      2183      2186      2187      2181      2183      2186      2188
      2181      2183      2186      2189      2182      2181      2183      2184
      2182      2181      2183      2185      2182      2181      2183      2186
      2183      2186      2189      2190      2183      2186      2189      2191
      2183      2186      2189      2192      2184      2183      2186      2187
      2184      2183      2186      2188      2184      2183      2186      2189
      2185      2183      2186      2187      2185      2183      2186      2188
      2185      2183      2186      2189      2186      2189      2192      2193
      2186      2189      2192      2194      2186      2189      2192      2195
      2187      2186      2189      2190      2187      2186      2189      2191
      2187      2186      2189      2192      2188      2186      2189      2190
      2188      2186      2189      2191      2188      2186      2189      2192
      2189      2192      2195      2196      2189      2192      2195      2197
      2189      2192      2195      2198      2190      2189      2192      2193
      2190      2189      2192      2194      2190      2189      2192      2195
      2191      2189      2192      2193      2191      2189      2192      2194
      2191      2189      2192      2195      2192      2195      2198      2199
      2192      2195      2198      2200      2192      2195      2198      2201
      2193      2192      2195      2196      2193      2192      2195      2197
      2193      2192      2195      2198      2194      2192      2195      2196
      2194      2192      2195      2197      2194      2192      2195      2198
      2195      2198      2201      2202      2195      2198      2201      2203
      2195      2198      2201      2204      2196      2195      2198      2199
      2196      2195      2198      2200      2196      2195      2198      2201
      2197      2195      2198      2199      2197      2195      2198      2200
      2197      2195      2198      2201      2198      2201      2204      2205
      2198      2201      2204      2206      2198      2201      2204      2207
      2199      2198      2201      2202      2199      2198      2201      2203
      2199      2198      2201      2204      2200      2198      2201      2202
      2200      2198      2201      2203      2200      2198      2201      2204
      2202      2201      2204      2205      2202      2201      2204      2206
      2202      2201      2204      2207      2203      2201      2204      2205
      2203      2201      2204      2206      2203      2201      2204      2207
      2208      2211      2214      2215      2208      2211      2214      2216
      2208      2211      2214      2217      2209      2208      2211      2212
      2209      2208      2211      2213      2209      2208      2211      2214
      2210      2208      2211      2212      2210      2208      2211      2213
      2210      2208      2211      2214      2211      2214      2217      2218
      2211      2214      2217      2219      2211      2214      2217      2220
      2212      2211      2214      2215      2212      2211      2214      2216
      2212      2211      2214      2217      2213      2211      2214      2215
      2213      2211      2214      2216      2213      2211      2214      2217
      2214      2217      2220      2221      2214      2217      2220      2222
      2214      2217      2220      2223      2215      2214      2217      2218
      2215      2214      2217      2219      2215      2214      2217      2220
      2216      2214      2217      2218      2216      2214      2217      2219
      2216      2214      2217      2220      2217      2220      2223      2224
      2217      2220      2223      2225      2217      2220      2223      2226
      2218      2217      2220      2221      2218      2217      2220      2222
      2218      2217      2220      2223      2219      2217      2220      2221
      2219      2217      2220      2222      2219      2217      2220      2223
      2220      2223      2226      2227      2220      2223      2226      2228
      2220      2223      2226      2229      2221      2220      2223      2224
      2221      2220      2223      2225      2221      2220      2223      2226
      2222      2220      2223      2224      2222      2220      2223      2225
      2222      2220      2223      2226      2223      2226      2229      2230
      2223      2226      2229      2231      2223      2226      2229      2232
      2224      2223      2226      2227      2224      2223      2226      2228
      2224      2223      2226      2229      2225      2223      2226      2227
      2225      2223      2226      2228      2225      2223      2226      2229
      2226      2229      2232      2233      2226      2229      2232      2234
      2226      2229      2232      2235      2227      2226      2229      2230
      2227      2226      2229      2231      2227      2226      2229      2232
      2228      2226      2229      2230      2228      2226      2229      2231
      2228      2226      2229      2232      2229      2232      2235      2236
      2229      2232      2235      2237      2229      2232      2235      2238
      2230      2229      2232      2233      2230      2229      2232      2234
      2230      2229      2232      2235      2231      2229      2232      2233
      2231      2229      2232      2234      2231      2229      2232      2235
      2232      2235      2238      2239      2232      2235      2238      2240
      2232      2235      2238      2241      2233      2232      2235      2236
      2233      2232      2235      2237      2233      2232      2235      2238
      2234      2232      2235      2236      2234      2232      2235      2237
      2234      2232      2235      2238      2235      2238      2241      2242
      2235      2238      2241      2243      2235      2238      2241      2244
      2236      2235      2238      2239      2236      2235      2238      2240
      2236      2235      2238      2241      2237      2235      2238      2239
      2237      2235      2238      2240      2237      2235      2238      2241
      2238      2241      2244      2245      2238      2241      2244      2246
      2238      2241      2244      2247      2239      2238      2241      2242
      2239      2238      2241      2243      2239      2238      2241      2244
      2240      2238      2241      2242      2240      2238      2241      2243
      2240      2238      2241      2244      2241      2244      2247      2248
      2241      2244      2247      2249      2241      2244      2247      2250
      2242      2241      2244      2245      2242      2241      2244      2246
      2242      2241      2244      2247      2243      2241      2244      2245
      2243      2241      2244      2246      2243      2241      2244      2247
      2245      2244      2247      2248      2245      2244      2247      2249
      2245      2244      2247      2250      2246      2244      2247      2248
      2246      2244      2247      2249      2246      2244      2247      2250
      2251      2252      2267      2268      2251      2252      2267      2269
      2251      2252      2267      2273      2252      2251      2255      2256
      2252      2251      2255      2257      2252      2251      2255      2258
      2252      2251      2259      2260      2252      2251      2259      2261
      2252      2251      2259      2262      2252      2251      2263      2264
      2252      2251      2263      2265      2252      2251      2263      2266
      2252      2267      2273      2270      2253      2252      2251      2255
      2253      2252      2251      2259      2253      2252      2251      2263
      2253      2252      2267      2268      2253      2252      2267      2269
      2253      2252      2267      2273      2254      2252      2251      2255
      2254      2252      2251      2259      2254      2252      2251      2263
      2254      2252      2267      2268      2254      2252      2267      2269
      2254      2252      2267      2273      2255      2251      2252      2267
      2255      2251      2259      2260      2255      2251      2259      2261
      2255      2251      2259      2262      2255      2251      2263      2264
      2255      2251      2263      2265      2255      2251      2263      2266
      2256      2255      2251      2259      2256      2255      2251      2263
      2257      2255      2251      2259      2257      2255      2251      2263
      2258      2255      2251      2259      2258      2255      2251      2263
      2259      2251      2252      2267      2259      2251      2263      2264
      2259      2251      2263      2265      2259      2251      2263      2266
      2260      2259      2251      2263      2261      2259      2251      2263
      2262      2259      2251      2263      2263      2251      2252      2267
      2267      2273      2270      2271      2267      2273      2270      2272
      2267      2273      2270      2274      2268      2267      2273      2270
      2269      2267      2273      2270      2270      2274      2275      2276
      2270      2274      2275      2277      2270      2274      2275      2278
      2271      2270      2274      2275      2272      2270      2274      2275
      2273      2270      2274      2275      2274      2275      2278      2279
      2274      2275      2278      2280      2274      2275      2278      2286
      2275      2278      2280      2281      2275      2278      2286      2287
      2275      2278      2286      2288      2275      2278      2286      2289
      2276      2275      2278      2279      2276      2275      2278      2280
      2276      2275      2278      2286      2277      2275      2278      2279
      2277      2275      2278      2280      2277      2275      2278      2286
      2278      2280      2281      2282      2278      2280      2281      2283
      2278      2286      2289      2290      2279      2278      2280      2281
      2279      2278      2286      2287      2279      2278      2286      2288
      2279      2278      2286      2289      2280      2278      2286      2287
      2280      2278      2286      2288      2280      2278      2286      2289
      2280      2281      2283      2284      2280      2281      2283      2285
      2280      2281      2283      2295      2281      2280      2278      2286
      2281      2283      2295      2296      2281      2283      2295      2297
      2281      2283      2295      2298      2282      2281      2283      2284
      2282      2281      2283      2285      2282      2281      2283      2295
      2283      2295      2298      2299      2283      2295      2298      2300
      2283      2295      2298      2301      2284      2283      2295      2296
      2284      2283      2295      2297      2284      2283      2295      2298
      2285      2283      2295      2296      2285      2283      2295      2297
      2285      2283      2295      2298      2286      2289      2290      2291
      2286      2289      2290      2292      2287      2286      2289      2290
      2288      2286      2289      2290      2289      2290      2292      2293
      2289      2290      2292      2294      2289      2290      2292      2342
      2290      2292      2342      2343      2290      2292      2342      2344
      2290      2292      2342      2345      2291      2290      2292      2293
      2291      2290      2292      2294      2291      2290      2292      2342
      2292      2342      2345      2346      2292      2342      2345      2347
      2292      2342      2345      2348      2293      2292      2342      2343
      2293      2292      2342      2344      2293      2292      2342      2345
      2294      2292      2342      2343      2294      2292      2342      2344
      2294      2292      2342      2345      2295      2298      2301      2302
      2295      2298      2301      2303      2295      2298      2301      2304
      2296      2295      2298      2299      2296      2295      2298      2300
      2296      2295      2298      2301      2297      2295      2298      2299
      2297      2295      2298      2300      2297      2295      2298      2301
      2298      2301      2304      2305      2298      2301      2304      2306
      2298      2301      2304      2307      2299      2298      2301      2302
      2299      2298      2301      2303      2299      2298      2301      2304
      2300      2298      2301      2302      2300      2298      2301      2303
      2300      2298      2301      2304      2301      2304      2307      2308
      2301      2304      2307      2309      2301      2304      2307      2310
      2302      2301      2304      2305      2302      2301      2304      2306
      2302      2301      2304      2307      2303      2301      2304      2305
      2303      2301      2304      2306      2303      2301      2304      2307
      2304      2307      2310      2311      2304      2307      2310      2312
      2304      2307      2310      2313      2305      2304      2307      2308
      2305      2304      2307      2309      2305      2304      2307      2310
      2306      2304      2307      2308      2306      2304      2307      2309
      2306      2304      2307      2310      2307      2310      2313      2314
      2307      2310      2313      2315      2308      2307      2310      2311
      2308      2307      2310      2312      2308      2307      2310      2313
      2309      2307      2310      2311      2309      2307      2310      2312
      2309      2307      2310      2313      2310      2313      2315      2316
      2310      2313      2315      2317      2311      2310      2313      2314
      2311      2310      2313      2315      2312      2310      2313      2314
      2312      2310      2313      2315      2313      2315      2317      2318
      2313      2315      2317      2319      2313      2315      2317      2320
      2314      2313      2315      2316      2314      2313      2315      2317
      2315      2317      2320      2321      2315      2317      2320      2322
      2315      2317      2320      2323      2316      2315      2317      2318
      2316      2315      2317      2319      2316      2315      2317      2320
      2317      2320      2323      2324      2317      2320      2323      2325
      2317      2320      2323      2326      2318      2317      2320      2321
      2318      2317      2320      2322      2318      2317      2320      2323
      2319      2317      2320      2321      2319      2317      2320      2322
      2319      2317      2320      2323      2320      2323      2326      2327
      2320      2323      2326      2328      2320      2323      2326      2329
      2321      2320      2323      2324      2321      2320      2323      2325
      2321      2320      2323      2326      2322      2320      2323      2324
      2322      2320      2323      2325      2322      2320      2323      2326
      2323      2326      2329      2330      2323      2326      2329      2331
      2323      2326      2329      2332      2324      2323      2326      2327
      2324      2323      2326      2328      2324      2323      2326      2329
      2325      2323      2326      2327      2325      2323      2326      2328
      2325      2323      2326      2329      2326      2329      2332      2333
      2326      2329      2332      2334      2326      2329      2332      2335
      2327      2326      2329      2330      2327      2326      2329      2331
      2327      2326      2329      2332      2328      2326      2329      2330
      2328      2326      2329      2331      2328      2326      2329      2332
      2329      2332      2335      2336      2329      2332      2335      2337
      2329      2332      2335      2338      2330      2329      2332      2333
      2330      2329      2332      2334      2330      2329      2332      2335
      2331      2329      2332      2333      2331      2329      2332      2334
      2331      2329      2332      2335      2332      2335      2338      2339
      2332      2335      2338      2340      2332      2335      2338      2341
      2333      2332      2335      2336      2333      2332      2335      2337
      2333      2332      2335      2338      2334      2332      2335      2336
      2334      2332      2335      2337      2334      2332      2335      2338
      2336      2335      2338      2339      2336      2335      2338      2340
      2336      2335      2338      2341      2337      2335      2338      2339
      2337      2335      2338      2340      2337      2335      2338      2341
      2342      2345      2348      2349      2342      2345      2348      2350
      2342      2345      2348      2351      2343      2342      2345      2346
      2343      2342      2345      2347      2343      2342      2345      2348
      2344      2342      2345      2346      2344      2342      2345      2347
      2344      2342      2345      2348      2345      2348      2351      2352
      2345      2348      2351      2353      2345      2348      2351      2354
      2346      2345      2348      2349      2346      2345      2348      2350
      2346      2345      2348      2351      2347      2345      2348      2349
      2347      2345      2348      2350      2347      2345      2348      2351
      2348      2351      2354      2355      2348      2351      2354      2356
      2348      2351      2354      2357      2349      2348      2351      2352
      2349      2348      2351      2353      2349      2348      2351      2354
      2350      2348      2351      2352      2350      2348      2351      2353
      2350      2348      2351      2354      2351      2354      2357      2358
      2351      2354      2357      2359      2351      2354      2357      2360
      2352      2351      2354      2355      2352      2351      2354      2356
      2352      2351      2354      2357      2353      2351      2354      2355
      2353      2351      2354      2356      2353      2351      2354      2357
      2354      2357      2360      2361      2354      2357      2360      2362
      2354      2357      2360      2363      2355      2354      2357      2358
      2355      2354      2357      2359      2355      2354      2357      2360
      2356      2354      2357      2358      2356      2354      2357      2359
      2356      2354      2357      2360      2357      2360      2363      2364
      2357      2360      2363      2365      2357      2360      2363      2366
      2358      2357      2360      2361      2358      2357      2360      2362
      2358      2357      2360      2363      2359      2357      2360      2361
      2359      2357      2360      2362      2359      2357      2360      2363
      2360      2363      2366      2367      2360      2363      2366      2368
      2360      2363      2366      2369      2361      2360      2363      2364
      2361      2360      2363      2365      2361      2360      2363      2366
      2362      2360      2363      2364      2362      2360      2363      2365
      2362      2360      2363      2366      2363      2366      2369      2370
      2363      2366      2369      2371      2363      2366      2369      2372
      2364      2363      2366      2367      2364      2363      2366      2368
      2364      2363      2366      2369      2365      2363      2366      2367
      2365      2363      2366      2368      2365      2363      2366      2369
      2366      2369      2372      2373      2366      2369      2372      2374
      2366      2369      2372      2375      2367      2366      2369      2370
      2367      2366      2369      2371      2367      2366      2369      2372
      2368      2366      2369      2370      2368      2366      2369      2371
      2368      2366      2369      2372      2369      2372      2375      2376
      2369      2372      2375      2377      2369      2372      2375      2378
      2370      2369      2372      2373      2370      2369      2372      2374
      2370      2369      2372      2375      2371      2369      2372      2373
      2371      2369      2372      2374      2371      2369      2372      2375
      2372      2375      2378      2379      2372      2375      2378      2380
      2372      2375      2378      2381      2373      2372      2375      2376
      2373      2372      2375      2377      2373      2372      2375      2378
      2374      2372      2375      2376      2374      2372      2375      2377
      2374      2372      2375      2378      2375      2378      2381      2382
      2375      2378      2381      2383      2375      2378      2381      2384
      2376      2375      2378      2379      2376      2375      2378      2380
      2376      2375      2378      2381      2377      2375      2378      2379
      2377      2375      2378      2380      2377      2375      2378      2381
      2379      2378      2381      2382      2379      2378      2381      2383
      2379      2378      2381      2384      2380      2378      2381      2382
      2380      2378      2381      2383      2380      2378      2381      2384
      2385      2386      2401      2402      2385      2386      2401      2403
      2385      2386      2401      2407      2386      2385      2389      2390
      2386      2385      2389      2391      2386      2385      2389      2392
      2386      2385      2393      2394      2386      2385      2393      2395
      2386      2385      2393      2396      2386      2385      2397      2398
      2386      2385      2397      2399      2386      2385      2397      2400
      2386      2401      2407      2404      2387      2386      2385      2389
      2387      2386      2385      2393      2387      2386      2385      2397
      2387      2386      2401      2402      2387      2386      2401      2403
      2387      2386      2401      2407      2388      2386      2385      2389
      2388      2386      2385      2393      2388      2386      2385      2397
      2388      2386      2401      2402      2388      2386      2401      2403
      2388      2386      2401      2407      2389      2385      2386      2401
      2389      2385      2393      2394      2389      2385      2393      2395
      2389      2385      2393      2396      2389      2385      2397      2398
      2389      2385      2397      2399      2389      2385      2397      2400
      2390      2389      2385      2393      2390      2389      2385      2397
      2391      2389      2385      2393      2391      2389      2385      2397
      2392      2389      2385      2393      2392      2389      2385      2397
      2393      2385      2386      2401      2393      2385      2397      2398
      2393      2385      2397      2399      2393      2385      2397      2400
      2394      2393      2385      2397      2395      2393      2385      2397
      2396      2393      2385      2397      2397      2385      2386      2401
      2401      2407      2404      2405      2401      2407      2404      2406
      2401      2407      2404      2408      2402      2401      2407      2404
      2403      2401      2407      2404      2404      2408      2409      2410
      2404      2408      2409      2411      2404      2408      2409      2412
      2405      2404      2408      2409      2406      2404      2408      2409
      2407      2404      2408      2409      2408      2409      2412      2413
      2408      2409      2412      2414      2408      2409      2412      2420
      2409      2412      2414      2415      2409      2412      2420      2421
      2409      2412      2420      2422      2409      2412      2420      2423
      2410      2409      2412      2413      2410      2409      2412      2414
      2410      2409      2412      2420      2411      2409      2412      2413
      2411      2409      2412      2414      2411      2409      2412      2420
      2412      2414      2415      2416      2412      2414      2415      2417
      2412      2420      2423      2424      2413      2412      2414      2415
      2413      2412      2420      2421      2413      2412      2420      2422
      2413      2412      2420      2423      2414      2412      2420      2421
      2414      2412      2420      2422      2414      2412      2420      2423
      2414      2415      2417      2418      2414      2415      2417      2419
      2414      2415      2417      2429      2415      2414      2412      2420
      2415      2417      2429      2430      2415      2417      2429      2431
      2415      2417      2429      2432      2416      2415      2417      2418
      2416      2415      2417      2419      2416      2415      2417      2429
      2417      2429      2432      2433      2417      2429      2432      2434
      2417      2429      2432      2435      2418      2417      2429      2430
      2418      2417      2429      2431      2418      2417      2429      2432
      2419      2417      2429      2430      2419      2417      2429      2431
      2419      2417      2429      2432      2420      2423      2424      2425
      2420      2423      2424      2426      2421      2420      2423      2424
      2422      2420      2423      2424      2423      2424      2426      2427
      2423      2424      2426      2428      2423      2424      2426      2476
      2424      2426      2476      2477      2424      2426      2476      2478
      2424      2426      2476      2479      2425      2424      2426      2427
      2425      2424      2426      2428      2425      2424      2426      2476
      2426      2476      2479      2480      2426      2476      2479      2481
      2426      2476      2479      2482      2427      2426      2476      2477
      2427      2426      2476      2478      2427      2426      2476      2479
      2428      2426      2476      2477      2428      2426      2476      2478
      2428      2426      2476      2479      2429      2432      2435      2436
      2429      2432      2435      2437      2429      2432      2435      2438
      2430      2429      2432      2433      2430      2429      2432      2434
      2430      2429      2432      2435      2431      2429      2432      2433
      2431      2429      2432      2434      2431      2429      2432      2435
      2432      2435      2438      2439      2432      2435      2438      2440
      2432      2435      2438      2441      2433      2432      2435      2436
      2433      2432      2435      2437      2433      2432      2435      2438
      2434      2432      2435      2436      2434      2432      2435      2437
      2434      2432      2435      2438      2435      2438      2441      2442
      2435      2438      2441      2443      2435      2438      2441      2444
      2436      2435      2438      2439      2436      2435      2438      2440
      2436      2435      2438      2441      2437      2435      2438      2439
      2437      2435      2438      2440      2437      2435      2438      2441
      2438      2441      2444      2445      2438      2441      2444      2446
      2438      2441      2444      2447      2439      2438      2441      2442
      2439      2438      2441      2443      2439      2438      2441      2444
      2440      2438      2441      2442      2440      2438      2441      2443
      2440      2438      2441      2444      2441      2444      2447      2448
      2441      2444      2447      2449      2442      2441      2444      2445
      2442      2441      2444      2446      2442      2441      2444      2447
      2443      2441      2444      2445      2443      2441      2444      2446
      2443      2441      2444      2447      2444      2447      2449      2450
      2444      2447      2449      2451      2445      2444      2447      2448
      2445      2444      2447      2449      2446      2444      2447      2448
      2446      2444      2447      2449      2447      2449      2451      2452
      2447      2449      2451      2453      2447      2449      2451      2454
      2448      2447      2449      2450      2448      2447      2449      2451
      2449      2451      2454      2455      2449      2451      2454      2456
      2449      2451      2454      2457      2450      2449      2451      2452
      2450      2449      2451      2453      2450      2449      2451      2454
      2451      2454      2457      2458      2451      2454      2457      2459
      2451      2454      2457      2460      2452      2451      2454      2455
      2452      2451      2454      2456      2452      2451      2454      2457
      2453      2451      2454      2455      2453      2451      2454      2456
      2453      2451      2454      2457      2454      2457      2460      2461
      2454      2457      2460      2462      2454      2457      2460      2463
      2455      2454      2457      2458      2455      2454      2457      2459
      2455      2454      2457      2460      2456      2454      2457      2458
      2456      2454      2457      2459      2456      2454      2457      2460
      2457      2460      2463      2464      2457      2460      2463      2465
      2457      2460      2463      2466      2458      2457      2460      2461
      2458      2457      2460      2462      2458      2457      2460      2463
      2459      2457      2460      2461      2459      2457      2460      2462
      2459      2457      2460      2463      2460      2463      2466      2467
      2460      2463      2466      2468      2460      2463      2466      2469
      2461      2460      2463      2464      2461      2460      2463      2465
      2461      2460      2463      2466      2462      2460      2463      2464
      2462      2460      2463      2465      2462      2460      2463      2466
      2463      2466      2469      2470      2463      2466      2469      2471
      2463      2466      2469      2472      2464      2463      2466      2467
      2464      2463      2466      2468      2464      2463      2466      2469
      2465      2463      2466      2467      2465      2463      2466      2468
      2465      2463      2466      2469      2466      2469      2472      2473
      2466      2469      2472      2474      2466      2469      2472      2475
      2467      2466      2469      2470      2467      2466      2469      2471
      2467      2466      2469      2472      2468      2466      2469      2470
      2468      2466      2469      2471      2468      2466      2469      2472
      2470      2469      2472      2473      2470      2469      2472      2474
      2470      2469      2472      2475      2471      2469      2472      2473
      2471      2469      2472      2474      2471      2469      2472      2475
      2476      2479      2482      2483      2476      2479      2482      2484
      2476      2479      2482      2485      2477      2476      2479      2480
      2477      2476      2479      2481      2477      2476      2479      2482
      2478      2476      2479      2480      2478      2476      2479      2481
      2478      2476      2479      2482      2479      2482      2485      2486
      2479      2482      2485      2487      2479      2482      2485      2488
      2480      2479      2482      2483      2480      2479      2482      2484
      2480      2479      2482      2485      2481      2479      2482      2483
      2481      2479      2482      2484      2481      2479      2482      2485
      2482      2485      2488      2489      2482      2485      2488      2490
      2482      2485      2488      2491      2483      2482      2485      2486
      2483      2482      2485      2487      2483      2482      2485      2488
      2484      2482      2485      2486      2484      2482      2485      2487
      2484      2482      2485      2488      2485      2488      2491      2492
      2485      2488      2491      2493      2485      2488      2491      2494
      2486      2485      2488      2489      2486      2485      2488      2490
      2486      2485      2488      2491      2487      2485      2488      2489
      2487      2485      2488      2490      2487      2485      2488      2491
      2488      2491      2494      2495      2488      2491      2494      2496
      2488      2491      2494      2497      2489      2488      2491      2492
      2489      2488      2491      2493      2489      2488      2491      2494
      2490      2488      2491      2492      2490      2488      2491      2493
      2490      2488      2491      2494      2491      2494      2497      2498
      2491      2494      2497      2499      2491      2494      2497      2500
      2492      2491      2494      2495      2492      2491      2494      2496
      2492      2491      2494      2497      2493      2491      2494      2495
      2493      2491      2494      2496      2493      2491      2494      2497
      2494      2497      2500      2501      2494      2497      2500      2502
      2494      2497      2500      2503      2495      2494      2497      2498
      2495      2494      2497      2499      2495      2494      2497      2500
      2496      2494      2497      2498      2496      2494      2497      2499
      2496      2494      2497      2500      2497      2500      2503      2504
      2497      2500      2503      2505      2497      2500      2503      2506
      2498      2497      2500      2501      2498      2497      2500      2502
      2498      2497      2500      2503      2499      2497      2500      2501
      2499      2497      2500      2502      2499      2497      2500      2503
      2500      2503      2506      2507      2500      2503      2506      2508
      2500      2503      2506      2509      2501      2500      2503      2504
      2501      2500      2503      2505      2501      2500      2503      2506
      2502      2500      2503      2504      2502      2500      2503      2505
      2502      2500      2503      2506      2503      2506      2509      2510
      2503      2506      2509      2511      2503      2506      2509      2512
      2504      2503      2506      2507      2504      2503      2506      2508
      2504      2503      2506      2509      2505      2503      2506      2507
      2505      2503      2506      2508      2505      2503      2506      2509
      2506      2509      2512      2513      2506      2509      2512      2514
      2506      2509      2512      2515      2507      2506      2509      2510
      2507      2506      2509      2511      2507      2506      2509      2512
      2508      2506      2509      2510      2508      2506      2509      2511
      2508      2506      2509      2512      2509      2512      2515      2516
      2509      2512      2515      2517      2509      2512      2515      2518
      2510      2509      2512      2513      2510      2509      2512      2514
      2510      2509      2512      2515      2511      2509      2512      2513
      2511      2509      2512      2514      2511      2509      2512      2515
      2513      2512      2515      2516      2513      2512      2515      2517
      2513      2512      2515      2518      2514      2512      2515      2516
      2514      2512      2515      2517      2514      2512      2515      2518
      2519      2520      2535      2536      2519      2520      2535      2537
      2519      2520      2535      2541      2520      2519      2523      2524
      2520      2519      2523      2525      2520      2519      2523      2526
      2520      2519      2527      2528      2520      2519      2527      2529
      2520      2519      2527      2530      2520      2519      2531      2532
      2520      2519      2531      2533      2520      2519      2531      2534
      2520      2535      2541      2538      2521      2520      2519      2523
      2521      2520      2519      2527      2521      2520      2519      2531
      2521      2520      2535      2536      2521      2520      2535      2537
      2521      2520      2535      2541      2522      2520      2519      2523
      2522      2520      2519      2527      2522      2520      2519      2531
      2522      2520      2535      2536      2522      2520      2535      2537
      2522      2520      2535      2541      2523      2519      2520      2535
      2523      2519      2527      2528      2523      2519      2527      2529
      2523      2519      2527      2530      2523      2519      2531      2532
      2523      2519      2531      2533      2523      2519      2531      2534
      2524      2523      2519      2527      2524      2523      2519      2531
      2525      2523      2519      2527      2525      2523      2519      2531
      2526      2523      2519      2527      2526      2523      2519      2531
      2527      2519      2520      2535      2527      2519      2531      2532
      2527      2519      2531      2533      2527      2519      2531      2534
      2528      2527      2519      2531      2529      2527      2519      2531
      2530      2527      2519      2531      2531      2519      2520      2535
      2535      2541      2538      2539      2535      2541      2538      2540
      2535      2541      2538      2542      2536      2535      2541      2538
      2537      2535      2541      2538      2538      2542      2543      2544
      2538      2542      2543      2545      2538      2542      2543      2546
      2539      2538      2542      2543      2540      2538      2542      2543
      2541      2538      2542      2543      2542      2543      2546      2547
      2542      2543      2546      2548      2542      2543      2546      2554
      2543      2546      2548      2549      2543      2546      2554      2555
      2543      2546      2554      2556      2543      2546      2554      2557
      2544      2543      2546      2547      2544      2543      2546      2548
      2544      2543      2546      2554      2545      2543      2546      2547
      2545      2543      2546      2548      2545      2543      2546      2554
      2546      2548      2549      2550      2546      2548      2549      2551
      2546      2554      2557      2558      2547      2546      2548      2549
      2547      2546      2554      2555      2547      2546      2554      2556
      2547      2546      2554      2557      2548      2546      2554      2555
      2548      2546      2554      2556      2548      2546      2554      2557
      2548      2549      2551      2552      2548      2549      2551      2553
      2548      2549      2551      2563      2549      2548      2546      2554
      2549      2551      2563      2564      2549      2551      2563      2565
      2549      2551      2563      2566      2550      2549      2551      2552
      2550      2549      2551      2553      2550      2549      2551      2563
      2551      2563      2566      2567      2551      2563      2566      2568
      2551      2563      2566      2569      2552      2551      2563      2564
      2552      2551      2563      2565      2552      2551      2563      2566
      2553      2551      2563      2564      2553      2551      2563      2565
      2553      2551      2563      2566      2554      2557      2558      2559
      2554      2557      2558      2560      2555      2554      2557      2558
      2556      2554      2557      2558      2557      2558      2560      2561
      2557      2558      2560      2562      2557      2558      2560      2610
      2558      2560      2610      2611      2558      2560      2610      2612
      2558      2560      2610      2613      2559      2558      2560      2561
      2559      2558      2560      2562      2559      2558      2560      2610
      2560      2610      2613      2614      2560      2610      2613      2615
      2560      2610      2613      2616      2561      2560      2610      2611
      2561      2560      2610      2612      2561      2560      2610      2613
      2562      2560      2610      2611      2562      2560      2610      2612
      2562      2560      2610      2613      2563      2566      2569      2570
      2563      2566      2569      2571      2563      2566      2569      2572
      2564      2563      2566      2567      2564      2563      2566      2568
      2564      2563      2566      2569      2565      2563      2566      2567
      2565      2563      2566      2568      2565      2563      2566      2569
      2566      2569      2572      2573      2566      2569      2572      2574
      2566      2569      2572      2575      2567      2566      2569      2570
      2567      2566      2569      2571      2567      2566      2569      2572
      2568      2566      2569      2570      2568      2566      2569      2571
      2568      2566      2569      2572      2569      2572      2575      2576
      2569      2572      2575      2577      2569      2572      2575      2578
      2570      2569      2572      2573      2570      2569      2572      2574
      2570      2569      2572      2575      2571      2569      2572      2573
      2571      2569      2572      2574      2571      2569      2572      2575
      2572      2575      2578      2579      2572      2575      2578      2580
      2572      2575      2578      2581      2573      2572      2575      2576
      2573      2572      2575      2577      2573      2572      2575      2578
      2574      2572      2575      2576      2574      2572      2575      2577
      2574      2572      2575      2578      2575      2578      2581      2582
      2575      2578      2581      2583      2576      2575      2578      2579
      2576      2575      2578      2580      2576      2575      2578      2581
      2577      2575      2578      2579      2577      2575      2578      2580
      2577      2575      2578      2581      2578      2581      2583      2584
      2578      2581      2583      2585      2579      2578      2581      2582
      2579      2578      2581      2583      2580      2578      2581      2582
      2580      2578      2581      2583      2581      2583      2585      2586
      2581      2583      2585      2587      2581      2583      2585      2588
      2582      2581      2583      2584      2582      2581      2583      2585
      2583      2585      2588      2589      2583      2585      2588      2590
      2583      2585      2588      2591      2584      2583      2585      2586
      2584      2583      2585      2587      2584      2583      2585      2588
      2585      2588      2591      2592      2585      2588      2591      2593
      2585      2588      2591      2594      2586      2585      2588      2589
      2586      2585      2588      2590      2586      2585      2588      2591
      2587      2585      2588      2589      2587      2585      2588      2590
      2587      2585      2588      2591      2588      2591      2594      2595
      2588      2591      2594      2596      2588      2591      2594      2597
      2589      2588      2591      2592      2589      2588      2591      2593
      2589      2588      2591      2594      2590      2588      2591      2592
      2590      2588      2591      2593      2590      2588      2591      2594
      2591      2594      2597      2598      2591      2594      2597      2599
      2591      2594      2597      2600      2592      2591      2594      2595
      2592      2591      2594      2596      2592      2591      2594      2597
      2593      2591      2594      2595      2593      2591      2594      2596
      2593      2591      2594      2597      2594      2597      2600      2601
      2594      2597      2600      2602      2594      2597      2600      2603
      2595      2594      2597      2598      2595      2594      2597      2599
      2595      2594      2597      2600      2596      2594      2597      2598
      2596      2594      2597      2599      2596      2594      2597      2600
      2597      2600      2603      2604      2597      2600      2603      2605
      2597      2600      2603      2606      2598      2597      2600      2601
      2598      2597      2600      2602      2598      2597      2600      2603
      2599      2597      2600      2601      2599      2597      2600      2602
      2599      2597      2600      2603      2600      2603      2606      2607
      2600      2603      2606      2608      2600      2603      2606      2609
      2601      2600      2603      2604      2601      2600      2603      2605
      2601      2600      2603      2606      2602      2600      2603      2604
      2602      2600      2603      2605      2602      2600      2603      2606
      2604      2603      2606      2607      2604      2603      2606      2608
      2604      2603      2606      2609      2605      2603      2606      2607
      2605      2603      2606      2608      2605      2603      2606      2609
      2610      2613      2616      2617      2610      2613      2616      2618
      2610      2613      2616      2619      2611      2610      2613      2614
      2611      2610      2613      2615      2611      2610      2613      2616
      2612      2610      2613      2614      2612      2610      2613      2615
      2612      2610      2613      2616      2613      2616      2619      2620
      2613      2616      2619      2621      2613      2616      2619      2622
      2614      2613      2616      2617      2614      2613      2616      2618
      2614      2613      2616      2619      2615      2613      2616      2617
      2615      2613      2616      2618      2615      2613      2616      2619
      2616      2619      2622      2623      2616      2619      2622      2624
      2616      2619      2622      2625      2617      2616      2619      2620
      2617      2616      2619      2621      2617      2616      2619      2622
      2618      2616      2619      2620      2618      2616      2619      2621
      2618      2616      2619      2622      2619      2622      2625      2626
      2619      2622      2625      2627      2619      2622      2625      2628
      2620      2619      2622      2623      2620      2619      2622      2624
      2620      2619      2622      2625      2621      2619      2622      2623
      2621      2619      2622      2624      2621      2619      2622      2625
      2622      2625      2628      2629      2622      2625      2628      2630
      2622      2625      2628      2631      2623      2622      2625      2626
      2623      2622      2625      2627      2623      2622      2625      2628
      2624      2622      2625      2626      2624      2622      2625      2627
      2624      2622      2625      2628      2625      2628      2631      2632
      2625      2628      2631      2633      2625      2628      2631      2634
      2626      2625      2628      2629      2626      2625      2628      2630
      2626      2625      2628      2631      2627      2625      2628      2629
      2627      2625      2628      2630      2627      2625      2628      2631
      2628      2631      2634      2635      2628      2631      2634      2636
      2628      2631      2634      2637      2629      2628      2631      2632
      2629      2628      2631      2633      2629      2628      2631      2634
      2630      2628      2631      2632      2630      2628      2631      2633
      2630      2628      2631      2634      2631      2634      2637      2638
      2631      2634      2637      2639      2631      2634      2637      2640
      2632      2631      2634      2635      2632      2631      2634      2636
      2632      2631      2634      2637      2633      2631      2634      2635
      2633      2631      2634      2636      2633      2631      2634      2637
      2634      2637      2640      2641      2634      2637      2640      2642
      2634      2637      2640      2643      2635      2634      2637      2638
      2635      2634      2637      2639      2635      2634      2637      2640
      2636      2634      2637      2638      2636      2634      2637      2639
      2636      2634      2637      2640      2637      2640      2643      2644
      2637      2640      2643      2645      2637      2640      2643      2646
      2638      2637      2640      2641      2638      2637      2640      2642
      2638      2637      2640      2643      2639      2637      2640      2641
      2639      2637      2640      2642      2639      2637      2640      2643
      2640      2643      2646      2647      2640      2643      2646      2648
      2640      2643      2646      2649      2641      2640      2643      2644
      2641      2640      2643      2645      2641      2640      2643      2646
      2642      2640      2643      2644      2642      2640      2643      2645
      2642      2640      2643      2646      2643      2646      2649      2650
      2643      2646      2649      2651      2643      2646      2649      2652
      2644      2643      2646      2647      2644      2643      2646      2648
      2644      2643      2646      2649      2645      2643      2646      2647
      2645      2643      2646      2648      2645      2643      2646      2649
      2647      2646      2649      2650      2647      2646      2649      2651
      2647      2646      2649      2652      2648      2646      2649      2650
      2648      2646      2649      2651      2648      2646      2649      2652
      2653      2654      2669      2670      2653      2654      2669      2671
      2653      2654      2669      2675      2654      2653      2657      2658
      2654      2653      2657      2659      2654      2653      2657      2660
      2654      2653      2661      2662      2654      2653      2661      2663
      2654      2653      2661      2664      2654      2653      2665      2666
      2654      2653      2665      2667      2654      2653      2665      2668
      2654      2669      2675      2672      2655      2654      2653      2657
      2655      2654      2653      2661      2655      2654      2653      2665
      2655      2654      2669      2670      2655      2654      2669      2671
      2655      2654      2669      2675      2656      2654      2653      2657
      2656      2654      2653      2661      2656      2654      2653      2665
      2656      2654      2669      2670      2656      2654      2669      2671
      2656      2654      2669      2675      2657      2653      2654      2669
      2657      2653      2661      2662      2657      2653      2661      2663
      2657      2653      2661      2664      2657      2653      2665      2666
      2657      2653      2665      2667      2657      2653      2665      2668
      2658      2657      2653      2661      2658      2657      2653      2665
      2659      2657      2653      2661      2659      2657      2653      2665
      2660      2657      2653      2661      2660      2657      2653      2665
      2661      2653      2654      2669      2661      2653      2665      2666
      2661      2653      2665      2667      2661      2653      2665      2668
      2662      2661      2653      2665      2663      2661      2653      2665
      2664      2661      2653      2665      2665      2653      2654      2669
      2669      2675      2672      2673      2669      2675      2672      2674
      2669      2675      2672      2676      2670      2669      2675      2672
      2671      2669      2675      2672      2672      2676      2677      2678
      2672      2676      2677      2679      2672      2676      2677      2680
      2673      2672      2676      2677      2674      2672      2676      2677
      2675      2672      2676      2677      2676      2677      2680      2681
      2676      2677      2680      2682      2676      2677      2680      2688
      2677      2680      2682      2683      2677      2680      2688      2689
      2677      2680      2688      2690      2677      2680      2688      2691
      2678      2677      2680      2681      2678      2677      2680      2682
      2678      2677      2680      2688      2679      2677      2680      2681
      2679      2677      2680      2682      2679      2677      2680      2688
      2680      2682      2683      2684      2680      2682      2683      2685
      2680      2688      2691      2692      2681      2680      2682      2683
      2681      2680      2688      2689      2681      2680      2688      2690
      2681      2680      2688      2691      2682      2680      2688      2689
      2682      2680      2688      2690      2682      2680      2688      2691
      2682      2683      2685      2686      2682      2683      2685      2687
      2682      2683      2685      2697      2683      2682      2680      2688
      2683      2685      2697      2698      2683      2685      2697      2699
      2683      2685      2697      2700      2684      2683      2685      2686
      2684      2683      2685      2687      2684      2683      2685      2697
      2685      2697      2700      2701      2685      2697      2700      2702
      2685      2697      2700      2703      2686      2685      2697      2698
      2686      2685      2697      2699      2686      2685      2697      2700
      2687      2685      2697      2698      2687      2685      2697      2699
      2687      2685      2697      2700      2688      2691      2692      2693
      2688      2691      2692      2694      2689      2688      2691      2692
      2690      2688      2691      2692      2691      2692      2694      2695
      2691      2692      2694      2696      2691      2692      2694      2744
      2692      2694      2744      2745      2692      2694      2744      2746
      2692      2694      2744      2747      2693      2692      2694      2695
      2693      2692      2694      2696      2693      2692      2694      2744
      2694      2744      2747      2748      2694      2744      2747      2749
      2694      2744      2747      2750      2695      2694      2744      2745
      2695      2694      2744      2746      2695      2694      2744      2747
      2696      2694      2744      2745      2696      2694      2744      2746
      2696      2694      2744      2747      2697      2700      2703      2704
      2697      2700      2703      2705      2697      2700      2703      2706
      2698      2697      2700      2701      2698      2697      2700      2702
      2698      2697      2700      2703      2699      2697      2700      2701
      2699      2697      2700      2702      2699      2697      2700      2703
      2700      2703      2706      2707      2700      2703      2706      2708
      2700      2703      2706      2709      2701      2700      2703      2704
      2701      2700      2703      2705      2701      2700      2703      2706
      2702      2700      2703      2704      2702      2700      2703      2705
      2702      2700      2703      2706      2703      2706      2709      2710
      2703      2706      2709      2711      2703      2706      2709      2712
      2704      2703      2706      2707      2704      2703      2706      2708
      2704      2703      2706      2709      2705      2703      2706      2707
      2705      2703      2706      2708      2705      2703      2706      2709
      2706      2709      2712      2713      2706      2709      2712      2714
      2706      2709      2712      2715      2707      2706      2709      2710
      2707      2706      2709      2711      2707      2706      2709      2712
      2708      2706      2709      2710      2708      2706      2709      2711
      2708      2706      2709      2712      2709      2712      2715      2716
      2709      2712      2715      2717      2710      2709      2712      2713
      2710      2709      2712      2714      2710      2709      2712      2715
      2711      2709      2712      2713      2711      2709      2712      2714
      2711      2709      2712      2715      2712      2715      2717      2718
      2712      2715      2717      2719      2713      2712      2715      2716
      2713      2712      2715      2717      2714      2712      2715      2716
      2714      2712      2715      2717      2715      2717      2719      2720
      2715      2717      2719      2721      2715      2717      2719      2722
      2716      2715      2717      2718      2716      2715      2717      2719
      2717      2719      2722      2723      2717      2719      2722      2724
      2717      2719      2722      2725      2718      2717      2719      2720
      2718      2717      2719      2721      2718      2717      2719      2722
      2719      2722      2725      2726      2719      2722      2725      2727
      2719      2722      2725      2728      2720      2719      2722      2723
      2720      2719      2722      2724      2720      2719      2722      2725
      2721      2719      2722      2723      2721      2719      2722      2724
      2721      2719      2722      2725      2722      2725      2728      2729
      2722      2725      2728      2730      2722      2725      2728      2731
      2723      2722      2725      2726      2723      2722      2725      2727
      2723      2722      2725      2728      2724      2722      2725      2726
      2724      2722      2725      2727      2724      2722      2725      2728
      2725      2728      2731      2732      2725      2728      2731      2733
      2725      2728      2731      2734      2726      2725      2728      2729
      2726      2725      2728      2730      2726      2725      2728      2731
      2727      2725      2728      2729      2727      2725      2728      2730
      2727      2725      2728      2731      2728      2731      2734      2735
      2728      2731      2734      2736      2728      2731      2734      2737
      2729      2728      2731      2732      2729      2728      2731      2733
      2729      2728      2731      2734      2730      2728      2731      2732
      2730      2728      2731      2733      2730      2728      2731      2734
      2731      2734      2737      2738      2731      2734      2737      2739
      2731      2734      2737      2740      2732      2731      2734      2735
      2732      2731      2734      2736      2732      2731      2734      2737
      2733      2731      2734      2735      2733      2731      2734      2736
      2733      2731      2734      2737      2734      2737      2740      2741
      2734      2737      2740      2742      2734      2737      2740      2743
      2735      2734      2737      2738      2735      2734      2737      2739
      2735      2734      2737      2740      2736      2734      2737      2738
      2736      2734      2737      2739      2736      2734      2737      2740
      2738      2737      2740      2741      2738      2737      2740      2742
      2738      2737      2740      2743      2739      2737      2740      2741
      2739      2737      2740      2742      2739      2737      2740      2743
      2744      2747      2750      2751      2744      2747      2750      2752
      2744      2747      2750      2753      2745      2744      2747      2748
      2745      2744      2747      2749      2745      2744      2747      2750
      2746      2744      2747      2748      2746      2744      2747      2749
      2746      2744      2747      2750      2747      2750      2753      2754
      2747      2750      2753      2755      2747      2750      2753      2756
      2748      2747      2750      2751      2748      2747      2750      2752
      2748      2747      2750      2753      2749      2747      2750      2751
      2749      2747      2750      2752      2749      2747      2750      2753
      2750      2753      2756      2757      2750      2753      2756      2758
      2750      2753      2756      2759      2751      2750      2753      2754
      2751      2750      2753      2755      2751      2750      2753      2756
      2752      2750      2753      2754      2752      2750      2753      2755
      2752      2750      2753      2756      2753      2756      2759      2760
      2753      2756      2759      2761      2753      2756      2759      2762
      2754      2753      2756      2757      2754      2753      2756      2758
      2754      2753      2756      2759      2755      2753      2756      2757
      2755      2753      2756      2758      2755      2753      2756      2759
      2756      2759      2762      2763      2756      2759      2762      2764
      2756      2759      2762      2765      2757      2756      2759      2760
      2757      2756      2759      2761      2757      2756      2759      2762
      2758      2756      2759      2760      2758      2756      2759      2761
      2758      2756      2759      2762      2759      2762      2765      2766
      2759      2762      2765      2767      2759      2762      2765      2768
      2760      2759      2762      2763      2760      2759      2762      2764
      2760      2759      2762      2765      2761      2759      2762      2763
      2761      2759      2762      2764      2761      2759      2762      2765
      2762      2765      2768      2769      2762      2765      2768      2770
      2762      2765      2768      2771      2763      2762      2765      2766
      2763      2762      2765      2767      2763      2762      2765      2768
      2764      2762      2765      2766      2764      2762      2765      2767
      2764      2762      2765      2768      2765      2768      2771      2772
      2765      2768      2771      2773      2765      2768      2771      2774
      2766      2765      2768      2769      2766      2765      2768      2770
      2766      2765      2768      2771      2767      2765      2768      2769
      2767      2765      2768      2770      2767      2765      2768      2771
      2768      2771      2774      2775      2768      2771      2774      2776
      2768      2771      2774      2777      2769      2768      2771      2772
      2769      2768      2771      2773      2769      2768      2771      2774
      2770      2768      2771      2772      2770      2768      2771      2773
      2770      2768      2771      2774      2771      2774      2777      2778
      2771      2774      2777      2779      2771      2774      2777      2780
      2772      2771      2774      2775      2772      2771      2774      2776
      2772      2771      2774      2777      2773      2771      2774      2775
      2773      2771      2774      2776      2773      2771      2774      2777
      2774      2777      2780      2781      2774      2777      2780      2782
      2774      2777      2780      2783      2775      2774      2777      2778
      2775      2774      2777      2779      2775      2774      2777      2780
      2776      2774      2777      2778      2776      2774      2777      2779
      2776      2774      2777      2780      2777      2780      2783      2784
      2777      2780      2783      2785      2777      2780      2783      2786
      2778      2777      2780      2781      2778      2777      2780      2782
      2778      2777      2780      2783      2779      2777      2780      2781
      2779      2777      2780      2782      2779      2777      2780      2783
      2781      2780      2783      2784      2781      2780      2783      2785
      2781      2780      2783      2786      2782      2780      2783      2784
      2782      2780      2783      2785      2782      2780      2783      2786
      2787      2788      2803      2804      2787      2788      2803      2805
      2787      2788      2803      2809      2788      2787      2791      2792
      2788      2787      2791      2793      2788      2787      2791      2794
      2788      2787      2795      2796      2788      2787      2795      2797
      2788      2787      2795      2798      2788      2787      2799      2800
      2788      2787      2799      2801      2788      2787      2799      2802
      2788      2803      2809      2806      2789      2788      2787      2791
      2789      2788      2787      2795      2789      2788      2787      2799
      2789      2788      2803      2804      2789      2788      2803      2805
      2789      2788      2803      2809      2790      2788      2787      2791
      2790      2788      2787      2795      2790      2788      2787      2799
      2790      2788      2803      2804      2790      2788      2803      2805
      2790      2788      2803      2809      2791      2787      2788      2803
      2791      2787      2795      2796      2791      2787      2795      2797
      2791      2787      2795      2798      2791      2787      2799      2800
      2791      2787      2799      2801      2791      2787      2799      2802
      2792      2791      2787      2795      2792      2791      2787      2799
      2793      2791      2787      2795      2793      2791      2787      2799
      2794      2791      2787      2795      2794      2791      2787      2799
      2795      2787      2788      2803      2795      2787      2799      2800
      2795      2787      2799      2801      2795      2787      2799      2802
      2796      2795      2787      2799      2797      2795      2787      2799
      2798      2795      2787      2799      2799      2787      2788      2803
      2803      2809      2806      2807      2803      2809      2806      2808
      2803      2809      2806      2810      2804      2803      2809      2806
      2805      2803      2809      2806      2806      2810      2811      2812
      2806      2810      2811      2813      2806      2810      2811      2814
      2807      2806      2810      2811      2808      2806      2810      2811
      2809      2806      2810      2811      2810      2811      2814      2815
      2810      2811      2814      2816      2810      2811      2814      2822
      2811      2814      2816      2817      2811      2814      2822      2823
      2811      2814      2822      2824      2811      2814      2822      2825
      2812      2811      2814      2815      2812      2811      2814      2816
      2812      2811      2814      2822      2813      2811      2814      2815
      2813      2811      2814      2816      2813      2811      2814      2822
      2814      2816      2817      2818      2814      2816      2817      2819
      2814      2822      2825      2826      2815      2814      2816      2817
      2815      2814      2822      2823      2815      2814      2822      2824
      2815      2814      2822      2825      2816      2814      2822      2823
      2816      2814      2822      2824      2816      2814      2822      2825
      2816      2817      2819      2820      2816      2817      2819      2821
      2816      2817      2819      2831      2817      2816      2814      2822
      2817      2819      2831      2832      2817      2819      2831      2833
      2817      2819      2831      2834      2818      2817      2819      2820
      2818      2817      2819      2821      2818      2817      2819      2831
      2819      2831      2834      2835      2819      2831      2834      2836
      2819      2831      2834      2837      2820      2819      2831      2832
      2820      2819      2831      2833      2820      2819      2831      2834
      2821      2819      2831      2832      2821      2819      2831      2833
      2821      2819      2831      2834      2822      2825      2826      2827
      2822      2825      2826      2828      2823      2822      2825      2826
      2824      2822      2825      2826      2825      2826      2828      2829
      2825      2826      2828      2830      2825      2826      2828      2878
      2826      2828      2878      2879      2826      2828      2878      2880
      2826      2828      2878      2881      2827      2826      2828      2829
      2827      2826      2828      2830      2827      2826      2828      2878
      2828      2878      2881      2882      2828      2878      2881      2883
      2828      2878      2881      2884      2829      2828      2878      2879
      2829      2828      2878      2880      2829      2828      2878      2881
      2830      2828      2878      2879      2830      2828      2878      2880
      2830      2828      2878      2881      2831      2834      2837      2838
      2831      2834      2837      2839      2831      2834      2837      2840
      2832      2831      2834      2835      2832      2831      2834      2836
      2832      2831      2834      2837      2833      2831      2834      2835
      2833      2831      2834      2836      2833      2831      2834      2837
      2834      2837      2840      2841      2834      2837      2840      2842
      2834      2837      2840      2843      2835      2834      2837      2838
      2835      2834      2837      2839      2835      2834      2837      2840
      2836      2834      2837      2838      2836      2834      2837      2839
      2836      2834      2837      2840      2837      2840      2843      2844
      2837      2840      2843      2845      2837      2840      2843      2846
      2838      2837      2840      2841      2838      2837      2840      2842
      2838      2837      2840      2843      2839      2837      2840      2841
      2839      2837      2840      2842      2839      2837      2840      2843
      2840      2843      2846      2847      2840      2843      2846      2848
      2840      2843      2846      2849      2841      2840      2843      2844
      2841      2840      2843      2845      2841      2840      2843      2846
      2842      2840      2843      2844      2842      2840      2843      2845
      2842      2840      2843      2846      2843      2846      2849      2850
      2843      2846      2849      2851      2844      2843      2846      2847
      2844      2843      2846      2848      2844      2843      2846      2849
      2845      2843      2846      2847      2845      2843      2846      2848
      2845      2843      2846      2849      2846      2849      2851      2852
      2846      2849      2851      2853      2847      2846      2849      2850
      2847      2846      2849      2851      2848      2846      2849      2850
      2848      2846      2849      2851      2849      2851      2853      2854
      2849      2851      2853      2855      2849      2851      2853      2856
      2850      2849      2851      2852      2850      2849      2851      2853
      2851      2853      2856      2857      2851      2853      2856      2858
      2851      2853      2856      2859      2852      2851      2853      2854
      2852      2851      2853      2855      2852      2851      2853      2856
      2853      2856      2859      2860      2853      2856      2859      2861
      2853      2856      2859      2862      2854      2853      2856      2857
      2854      2853      2856      2858      2854      2853      2856      2859
      2855      2853      2856      2857      2855      2853      2856      2858
      2855      2853      2856      2859      2856      2859      2862      2863
      2856      2859      2862      2864      2856      2859      2862      2865
      2857      2856      2859      2860      2857      2856      2859      2861
      2857      2856      2859      2862      2858      2856      2859      2860
      2858      2856      2859      2861      2858      2856      2859      2862
      2859      2862      2865      2866      2859      2862      2865      2867
      2859      2862      2865      2868      2860      2859      2862      2863
      2860      2859      2862      2864      2860      2859      2862      2865
      2861      2859      2862      2863      2861      2859      2862      2864
      2861      2859      2862      2865      2862      2865      2868      2869
      2862      2865      2868      2870      2862      2865      2868      2871
      2863      2862      2865      2866      2863      2862      2865      2867
      2863      2862      2865      2868      2864      2862      2865      2866
      2864      2862      2865      2867      2864      2862      2865      2868
      2865      2868      2871      2872      2865      2868      2871      2873
      2865      2868      2871      2874      2866      2865      2868      2869
      2866      2865      2868      2870      2866      2865      2868      2871
      2867      2865      2868      2869      2867      2865      2868      2870
      2867      2865      2868      2871      2868      2871      2874      2875
      2868      2871      2874      2876      2868      2871      2874      2877
      2869      2868      2871      2872      2869      2868      2871      2873
      2869      2868      2871      2874      2870      2868      2871      2872
      2870      2868      2871      2873      2870      2868      2871      2874
      2872      2871      2874      2875      2872      2871      2874      2876
      2872      2871      2874      2877      2873      2871      2874      2875
      2873      2871      2874      2876      2873      2871      2874      2877
      2878      2881      2884      2885      2878      2881      2884      2886
      2878      2881      2884      2887      2879      2878      2881      2882
      2879      2878      2881      2883      2879      2878      2881      2884
      2880      2878      2881      2882      2880      2878      2881      2883
      2880      2878      2881      2884      2881      2884      2887      2888
      2881      2884      2887      2889      2881      2884      2887      2890
      2882      2881      2884      2885      2882      2881      2884      2886
      2882      2881      2884      2887      2883      2881      2884      2885
      2883      2881      2884      2886      2883      2881      2884      2887
      2884      2887      2890      2891      2884      2887      2890      2892
      2884      2887      2890      2893      2885      2884      2887      2888
      2885      2884      2887      2889      2885      2884      2887      2890
      2886      2884      2887      2888      2886      2884      2887      2889
      2886      2884      2887      2890      2887      2890      2893      2894
      2887      2890      2893      2895      2887      2890      2893      2896
      2888      2887      2890      2891      2888      2887      2890      2892
      2888      2887      2890      2893      2889      2887      2890      2891
      2889      2887      2890      2892      2889      2887      2890      2893
      2890      2893      2896      2897      2890      2893      2896      2898
      2890      2893      2896      2899      2891      2890      2893      2894
      2891      2890      2893      2895      2891      2890      2893      2896
      2892      2890      2893      2894      2892      2890      2893      2895
      2892      2890      2893      2896      2893      2896      2899      2900
      2893      2896      2899      2901      2893      2896      2899      2902
      2894      2893      2896      2897      2894      2893      2896      2898
      2894      2893      2896      2899      2895      2893      2896      2897
      2895      2893      2896      2898      2895      2893      2896      2899
      2896      2899      2902      2903      2896      2899      2902      2904
      2896      2899      2902      2905      2897      2896      2899      2900
      2897      2896      2899      2901      2897      2896      2899      2902
      2898      2896      2899      2900      2898      2896      2899      2901
      2898      2896      2899      2902      2899      2902      2905      2906
      2899      2902      2905      2907      2899      2902      2905      2908
      2900      2899      2902      2903      2900      2899      2902      2904
      2900      2899      2902      2905      2901      2899      2902      2903
      2901      2899      2902      2904      2901      2899      2902      2905
      2902      2905      2908      2909      2902      2905      2908      2910
      2902      2905      2908      2911      2903      2902      2905      2906
      2903      2902      2905      2907      2903      2902      2905      2908
      2904      2902      2905      2906      2904      2902      2905      2907
      2904      2902      2905      2908      2905      2908      2911      2912
      2905      2908      2911      2913      2905      2908      2911      2914
      2906      2905      2908      2909      2906      2905      2908      2910
      2906      2905      2908      2911      2907      2905      2908      2909
      2907      2905      2908      2910      2907      2905      2908      2911
      2908      2911      2914      2915      2908      2911      2914      2916
      2908      2911      2914      2917      2909      2908      2911      2912
      2909      2908      2911      2913      2909      2908      2911      2914
      2910      2908      2911      2912      2910      2908      2911      2913
      2910      2908      2911      2914      2911      2914      2917      2918
      2911      2914      2917      2919      2911      2914      2917      2920
      2912      2911      2914      2915      2912      2911      2914      2916
      2912      2911      2914      2917      2913      2911      2914      2915
      2913      2911      2914      2916      2913      2911      2914      2917
      2915      2914      2917      2918      2915      2914      2917      2919
      2915      2914      2917      2920      2916      2914      2917      2918
      2916      2914      2917      2919      2916      2914      2917      2920
      2921      2922      2937      2938      2921      2922      2937      2939
      2921      2922      2937      2943      2922      2921      2925      2926
      2922      2921      2925      2927      2922      2921      2925      2928
      2922      2921      2929      2930      2922      2921      2929      2931
      2922      2921      2929      2932      2922      2921      2933      2934
      2922      2921      2933      2935      2922      2921      2933      2936
      2922      2937      2943      2940      2923      2922      2921      2925
      2923      2922      2921      2929      2923      2922      2921      2933
      2923      2922      2937      2938      2923      2922      2937      2939
      2923      2922      2937      2943      2924      2922      2921      2925
      2924      2922      2921      2929      2924      2922      2921      2933
      2924      2922      2937      2938      2924      2922      2937      2939
      2924      2922      2937      2943      2925      2921      2922      2937
      2925      2921      2929      2930      2925      2921      2929      2931
      2925      2921      2929      2932      2925      2921      2933      2934
      2925      2921      2933      2935      2925      2921      2933      2936
      2926      2925      2921      2929      2926      2925      2921      2933
      2927      2925      2921      2929      2927      2925      2921      2933
      2928      2925      2921      2929      2928      2925      2921      2933
      2929      2921      2922      2937      2929      2921      2933      2934
      2929      2921      2933      2935      2929      2921      2933      2936
      2930      2929      2921      2933      2931      2929      2921      2933
      2932      2929      2921      2933      2933      2921      2922      2937
      2937      2943      2940      2941      2937      2943      2940      2942
      2937      2943      2940      2944      2938      2937      2943      2940
      2939      2937      2943      2940      2940      2944      2945      2946
      2940      2944      2945      2947      2940      2944      2945      2948
      2941      2940      2944      2945      2942      2940      2944      2945
      2943      2940      2944      2945      2944      2945      2948      2949
      2944      2945      2948      2950      2944      2945      2948      2956
      2945      2948      2950      2951      2945      2948      2956      2957
      2945      2948      2956      2958      2945      2948      2956      2959
      2946      2945      2948      2949      2946      2945      2948      2950
      2946      2945      2948      2956      2947      2945      2948      2949
      2947      2945      2948      2950      2947      2945      2948      2956
      2948      2950      2951      2952      2948      2950      2951      2953
      2948      2956      2959      2960      2949      2948      2950      2951
      2949      2948      2956      2957      2949      2948      2956      2958
      2949      2948      2956      2959      2950      2948      2956      2957
      2950      2948      2956      2958      2950      2948      2956      2959
      2950      2951      2953      2954      2950      2951      2953      2955
      2950      2951      2953      2965      2951      2950      2948      2956
      2951      2953      2965      2966      2951      2953      2965      2967
      2951      2953      2965      2968      2952      2951      2953      2954
      2952      2951      2953      2955      2952      2951      2953      2965
      2953      2965      2968      2969      2953      2965      2968      2970
      2953      2965      2968      2971      2954      2953      2965      2966
      2954      2953      2965      2967      2954      2953      2965      2968
      2955      2953      2965      2966      2955      2953      2965      2967
      2955      2953      2965      2968      2956      2959      2960      2961
      2956      2959      2960      2962      2957      2956      2959      2960
      2958      2956      2959      2960      2959      2960      2962      2963
      2959      2960      2962      2964      2959      2960      2962      3012
      2960      2962      3012      3013      2960      2962      3012      3014
      2960      2962      3012      3015      2961      2960      2962      2963
      2961      2960      2962      2964      2961      2960      2962      3012
      2962      3012      3015      3016      2962      3012      3015      3017
      2962      3012      3015      3018      2963      2962      3012      3013
      2963      2962      3012      3014      2963      2962      3012      3015
      2964      2962      3012      3013      2964      2962      3012      3014
      2964      2962      3012      3015      2965      2968      2971      2972
      2965      2968      2971      2973      2965      2968      2971      2974
      2966      2965      2968      2969      2966      2965      2968      2970
      2966      2965      2968      2971      2967      2965      2968      2969
      2967      2965      2968      2970      2967      2965      2968      2971
      2968      2971      2974      2975      2968      2971      2974      2976
      2968      2971      2974      2977      2969      2968      2971      2972
      2969      2968      2971      2973      2969      2968      2971      2974
      2970      2968      2971      2972      2970      2968      2971      2973
      2970      2968      2971      2974      2971      2974      2977      2978
      2971      2974      2977      2979      2971      2974      2977      2980
      2972      2971      2974      2975      2972      2971      2974      2976
      2972      2971      2974      2977      2973      2971      2974      2975
      2973      2971      2974      2976      2973      2971      2974      2977
      2974      2977      2980      2981      2974      2977      2980      2982
      2974      2977      2980      2983      2975      2974      2977      2978
      2975      2974      2977      2979      2975      2974      2977      2980
      2976      2974      2977      2978      2976      2974      2977      2979
      2976      2974      2977      2980      2977      2980      2983      2984
      2977      2980      2983      2985      2978      2977      2980      2981
      2978      2977      2980      2982      2978      2977      2980      2983
      2979      2977      2980      2981      2979      2977      2980      2982
      2979      2977      2980      2983      2980      2983      2985      2986
      2980      2983      2985      2987      2981      2980      2983      2984
      2981      2980      2983      2985      2982      2980      2983      2984
      2982      2980      2983      2985      2983      2985      2987      2988
      2983      2985      2987      2989      2983      2985      2987      2990
      2984      2983      2985      2986      2984      2983      2985      2987
      2985      2987      2990      2991      2985      2987      2990      2992
      2985      2987      2990      2993      2986      2985      2987      2988
      2986      2985      2987      2989      2986      2985      2987      2990
      2987      2990      2993      2994      2987      2990      2993      2995
      2987      2990      2993      2996      2988      2987      2990      2991
      2988      2987      2990      2992      2988      2987      2990      2993
      2989      2987      2990      2991      2989      2987      2990      2992
      2989      2987      2990      2993      2990      2993      2996      2997
      2990      2993      2996      2998      2990      2993      2996      2999
      2991      2990      2993      2994      2991      2990      2993      2995
      2991      2990      2993      2996      2992      2990      2993      2994
      2992      2990      2993      2995      2992      2990      2993      2996
      2993      2996      2999      3000      2993      2996      2999      3001
      2993      2996      2999      3002      2994      2993      2996      2997
      2994      2993      2996      2998      2994      2993      2996      2999
      2995      2993      2996      2997      2995      2993      2996      2998
      2995      2993      2996      2999      2996      2999      3002      3003
      2996      2999      3002      3004      2996      2999      3002      3005
      2997      2996      2999      3000      2997      2996      2999      3001
      2997      2996      2999      3002      2998      2996      2999      3000
      2998      2996      2999      3001      2998      2996      2999      3002
      2999      3002      3005      3006      2999      3002      3005      3007
      2999      3002      3005      3008      3000      2999      3002      3003
      3000      2999      3002      3004      3000      2999      3002      3005
      3001      2999      3002      3003      3001      2999      3002      3004
      3001      2999      3002      3005      3002      3005      3008      3009
      3002      3005      3008      3010      3002      3005      3008      3011
      3003      3002      3005      3006      3003      3002      3005      3007
      3003      3002      3005      3008      3004      3002      3005      3006
      3004      3002      3005      3007      3004      3002      3005      3008
      3006      3005      3008      3009      3006      3005      3008      3010
      3006      3005      3008      3011      3007      3005      3008      3009
      3007      3005      3008      3010      3007      3005      3008      3011
      3012      3015      3018      3019      3012      3015      3018      3020
      3012      3015      3018      3021      3013      3012      3015      3016
      3013      3012      3015      3017      3013      3012      3015      3018
      3014      3012      3015      3016      3014      3012      3015      3017
      3014      3012      3015      3018      3015      3018      3021      3022
      3015      3018      3021      3023      3015      3018      3021      3024
      3016      3015      3018      3019      3016      3015      3018      3020
      3016      3015      3018      3021      3017      3015      3018      3019
      3017      3015      3018      3020      3017      3015      3018      3021
      3018      3021      3024      3025      3018      3021      3024      3026
      3018      3021      3024      3027      3019      3018      3021      3022
      3019      3018      3021      3023      3019      3018      3021      3024
      3020      3018      3021      3022      3020      3018      3021      3023
      3020      3018      3021      3024      3021      3024      3027      3028
      3021      3024      3027      3029      3021      3024      3027      3030
      3022      3021      3024      3025      3022      3021      3024      3026
      3022      3021      3024      3027      3023      3021      3024      3025
      3023      3021      3024      3026      3023      3021      3024      3027
      3024      3027      3030      3031      3024      3027      3030      3032
      3024      3027      3030      3033      3025      3024      3027      3028
      3025      3024      3027      3029      3025      3024      3027      3030
      3026      3024      3027      3028      3026      3024      3027      3029
      3026      3024      3027      3030      3027      3030      3033      3034
      3027      3030      3033      3035      3027      3030      3033      3036
      3028      3027      3030      3031      3028      3027      3030      3032
      3028      3027      3030      3033      3029      3027      3030      3031
      3029      3027      3030      3032      3029      3027      3030      3033
      3030      3033      3036      3037      3030      3033      3036      3038
      3030      3033      3036      3039      3031      3030      3033      3034
      3031      3030      3033      3035      3031      3030      3033      3036
      3032      3030      3033      3034      3032      3030      3033      3035
      3032      3030      3033      3036      3033      3036      3039      3040
      3033      3036      3039      3041      3033      3036      3039      3042
      3034      3033      3036      3037      3034      3033      3036      3038
      3034      3033      3036      3039      3035      3033      3036      3037
      3035      3033      3036      3038      3035      3033      3036      3039
      3036      3039      3042      3043      3036      3039      3042      3044
      3036      3039      3042      3045      3037      3036      3039      3040
      3037      3036      3039      3041      3037      3036      3039      3042
      3038      3036      3039      3040      3038      3036      3039      3041
      3038      3036      3039      3042      3039      3042      3045      3046
      3039      3042      3045      3047      3039      3042      3045      3048
      3040      3039      3042      3043      3040      3039      3042      3044
      3040      3039      3042      3045      3041      3039      3042      3043
      3041      3039      3042      3044      3041      3039      3042      3045
      3042      3045      3048      3049      3042      3045      3048      3050
      3042      3045      3048      3051      3043      3042      3045      3046
      3043      3042      3045      3047      3043      3042      3045      3048
      3044      3042      3045      3046      3044      3042      3045      3047
      3044      3042      3045      3048      3045      3048      3051      3052
      3045      3048      3051      3053      3045      3048      3051      3054
      3046      3045      3048      3049      3046      3045      3048      3050
      3046      3045      3048      3051      3047      3045      3048      3049
      3047      3045      3048      3050      3047      3045      3048      3051
      3049      3048      3051      3052      3049      3048      3051      3053
      3049      3048      3051      3054      3050      3048      3051      3052
      3050      3048      3051      3053      3050      3048      3051      3054
      3055      3056      3071      3072      3055      3056      3071      3073
      3055      3056      3071      3077      3056      3055      3059      3060
      3056      3055      3059      3061      3056      3055      3059      3062
      3056      3055      3063      3064      3056      3055      3063      3065
      3056      3055      3063      3066      3056      3055      3067      3068
      3056      3055      3067      3069      3056      3055      3067      3070
      3056      3071      3077      3074      3057      3056      3055      3059
      3057      3056      3055      3063      3057      3056      3055      3067
      3057      3056      3071      3072      3057      3056      3071      3073
      3057      3056      3071      3077      3058      3056      3055      3059
      3058      3056      3055      3063      3058      3056      3055      3067
      3058      3056      3071      3072      3058      3056      3071      3073
      3058      3056      3071      3077      3059      3055      3056      3071
      3059      3055      3063      3064      3059      3055      3063      3065
      3059      3055      3063      3066      3059      3055      3067      3068
      3059      3055      3067      3069      3059      3055      3067      3070
      3060      3059      3055      3063      3060      3059      3055      3067
      3061      3059      3055      3063      3061      3059      3055      3067
      3062      3059      3055      3063      3062      3059      3055      3067
      3063      3055      3056      3071      3063      3055      3067      3068
      3063      3055      3067      3069      3063      3055      3067      3070
      3064      3063      3055      3067      3065      3063      3055      3067
      3066      3063      3055      3067      3067      3055      3056      3071
      3071      3077      3074      3075      3071      3077      3074      3076
      3071      3077      3074      3078      3072      3071      3077      3074
      3073      3071      3077      3074      3074      3078      3079      3080
      3074      3078      3079      3081      3074      3078      3079      3082
      3075      3074      3078      3079      3076      3074      3078      3079
      3077      3074      3078      3079      3078      3079      3082      3083
      3078      3079      3082      3084      3078      3079      3082      3090
      3079      3082      3084      3085      3079      3082      3090      3091
      3079      3082      3090      3092      3079      3082      3090      3093
      3080      3079      3082      3083      3080      3079      3082      3084
      3080      3079      3082      3090      3081      3079      3082      3083
      3081      3079      3082      3084      3081      3079      3082      3090
      3082      3084      3085      3086      3082      3084      3085      3087
      3082      3090      3093      3094      3083      3082      3084      3085
      3083      3082      3090      3091      3083      3082      3090      3092
      3083      3082      3090      3093      3084      3082      3090      3091
      3084      3082      3090      3092      3084      3082      3090      3093
      3084      3085      3087      3088      3084      3085      3087      3089
      3084      3085      3087      3099      3085      3084      3082      3090
      3085      3087      3099      3100      3085      3087      3099      3101
      3085      3087      3099      3102      3086      3085      3087      3088
      3086      3085      3087      3089      3086      3085      3087      3099
      3087      3099      3102      3103      3087      3099      3102      3104
      3087      3099      3102      3105      3088      3087      3099      3100
      3088      3087      3099      3101      3088      3087      3099      3102
      3089      3087      3099      3100      3089      3087      3099      3101
      3089      3087      3099      3102      3090      3093      3094      3095
      3090      3093      3094      3096      3091      3090      3093      3094
      3092      3090      3093      3094      3093      3094      3096      3097
      3093      3094      3096      3098      3093      3094      3096      3146
      3094      3096      3146      3147      3094      3096      3146      3148
      3094      3096      3146      3149      3095      3094      3096      3097
      3095      3094      3096      3098      3095      3094      3096      3146
      3096      3146      3149      3150      3096      3146      3149      3151
      3096      3146      3149      3152      3097      3096      3146      3147
      3097      3096      3146      3148      3097      3096      3146      3149
      3098      3096      3146      3147      3098      3096      3146      3148
      3098      3096      3146      3149      3099      3102      3105      3106
      3099      3102      3105      3107      3099      3102      3105      3108
      3100      3099      3102      3103      3100      3099      3102      3104
      3100      3099      3102      3105      3101      3099      3102      3103
      3101      3099      3102      3104      3101      3099      3102      3105
      3102      3105      3108      3109      3102      3105      3108      3110
      3102      3105      3108      3111      3103      3102      3105      3106
      3103      3102      3105      3107      3103      3102      3105      3108
      3104      3102      3105      3106      3104      3102      3105      3107
      3104      3102      3105      3108      3105      3108      3111      3112
      3105      3108      3111      3113      3105      3108      3111      3114
      3106      3105      3108      3109      3106      3105      3108      3110
      3106      3105      3108      3111      3107      3105      3108      3109
      3107      3105      3108      3110      3107      3105      3108      3111
      3108      3111      3114      3115      3108      3111      3114      3116
      3108      3111      3114      3117      3109      3108      3111      3112
      3109      3108      3111      3113      3109      3108      3111      3114
      3110      3108      3111      3112      3110      3108      3111      3113
      3110      3108      3111      3114      3111      3114      3117      3118
      3111      3114      3117      3119      3112      3111      3114      3115
      3112      3111      3114      3116      3112      3111      3114      3117
      3113      3111      3114      3115      3113      3111      3114      3116
      3113      3111      3114      3117      3114      3117      3119      3120
      3114      3117      3119      3121      3115      3114      3117      3118
      3115      3114      3117      3119      3116      3114      3117      3118
      3116      3114      3117      3119      3117      3119      3121      3122
      3117      3119      3121      3123      3117      3119      3121      3124
      3118      3117      3119      3120      3118      3117      3119      3121
      3119      3121      3124      3125      3119      3121      3124      3126
      3119      3121      3124      3127      3120      3119      3121      3122
      3120      3119      3121      3123      3120      3119      3121      3124
      3121      3124      3127      3128      3121      3124      3127      3129
      3121      3124      3127      3130      3122      3121      3124      3125
      3122      3121      3124      3126      3122      3121      3124      3127
      3123      3121      3124      3125      3123      3121      3124      3126
      3123      3121      3124      3127      3124      3127      3130      3131
      3124      3127      3130      3132      3124      3127      3130      3133
      3125      3124      3127      3128      3125      3124      3127      3129
      3125      3124      3127      3130      3126      3124      3127      3128
      3126      3124      3127      3129      3126      3124      3127      3130
      3127      3130      3133      3134      3127      3130      3133      3135
      3127      3130      3133      3136      3128      3127      3130      3131
      3128      3127      3130      3132      3128      3127      3130      3133
      3129      3127      3130      3131      3129      3127      3130      3132
      3129      3127      3130      3133      3130      3133      3136      3137
      3130      3133      3136      3138      3130      3133      3136      3139
      3131      3130      3133      3134      3131      3130      3133      3135
      3131      3130      3133      3136      3132      3130      3133      3134
      3132      3130      3133      3135      3132      3130      3133      3136
      3133      3136      3139      3140      3133      3136      3139      3141
      3133      3136      3139      3142      3134      3133      3136      3137
      3134      3133      3136      3138      3134      3133      3136      3139
      3135      3133      3136      3137      3135      3133      3136      3138
      3135      3133      3136      3139      3136      3139      3142      3143
      3136      3139      3142      3144      3136      3139      3142      3145
      3137      3136      3139      3140      3137      3136      3139      3141
      3137      3136      3139      3142      3138      3136      3139      3140
      3138      3136      3139      3141      3138      3136      3139      3142
      3140      3139      3142      3143      3140      3139      3142      3144
      3140      3139      3142      3145      3141      3139      3142      3143
      3141      3139      3142      3144      3141      3139      3142      3145
      3146      3149      3152      3153      3146      3149      3152      3154
      3146      3149      3152      3155      3147      3146      3149      3150
      3147      3146      3149      3151      3147      3146      3149      3152
      3148      3146      3149      3150      3148      3146      3149      3151
      3148      3146      3149      3152      3149      3152      3155      3156
      3149      3152      3155      3157      3149      3152      3155      3158
      3150      3149      3152      3153      3150      3149      3152      3154
      3150      3149      3152      3155      3151      3149      3152      3153
      3151      3149      3152      3154      3151      3149      3152      3155
      3152      3155      3158      3159      3152      3155      3158      3160
      3152      3155      3158      3161      3153      3152      3155      3156
      3153      3152      3155      3157      3153      3152      3155      3158
      3154      3152      3155      3156      3154      3152      3155      3157
      3154      3152      3155      3158      3155      3158      3161      3162
      3155      3158      3161      3163      3155      3158      3161      3164
      3156      3155      3158      3159      3156      3155      3158      3160
      3156      3155      3158      3161      3157      3155      3158      3159
      3157      3155      3158      3160      3157      3155      3158      3161
      3158      3161      3164      3165      3158      3161      3164      3166
      3158      3161      3164      3167      3159      3158      3161      3162
      3159      3158      3161      3163      3159      3158      3161      3164
      3160      3158      3161      3162      3160      3158      3161      3163
      3160      3158      3161      3164      3161      3164      3167      3168
      3161      3164      3167      3169      3161      3164      3167      3170
      3162      3161      3164      3165      3162      3161      3164      3166
      3162      3161      3164      3167      3163      3161      3164      3165
      3163      3161      3164      3166      3163      3161      3164      3167
      3164      3167      3170      3171      3164      3167      3170      3172
      3164      3167      3170      3173      3165      3164      3167      3168
      3165      3164      3167      3169      3165      3164      3167      3170
      3166      3164      3167      3168      3166      3164      3167      3169
      3166      3164      3167      3170      3167      3170      3173      3174
      3167      3170      3173      3175      3167      3170      3173      3176
      3168      3167      3170      3171      3168      3167      3170      3172
      3168      3167      3170      3173      3169      3167      3170      3171
      3169      3167      3170      3172      3169      3167      3170      3173
      3170      3173      3176      3177      3170      3173      3176      3178
      3170      3173      3176      3179      3171      3170      3173      3174
      3171      3170      3173      3175      3171      3170      3173      3176
      3172      3170      3173      3174      3172      3170      3173      3175
      3172      3170      3173      3176      3173      3176      3179      3180
      3173      3176      3179      3181      3173      3176      3179      3182
      3174      3173      3176      3177      3174      3173      3176      3178
      3174      3173      3176      3179      3175      3173      3176      3177
      3175      3173      3176      3178      3175      3173      3176      3179
      3176      3179      3182      3183      3176      3179      3182      3184
      3176      3179      3182      3185      3177      3176      3179      3180
      3177      3176      3179      3181      3177      3176      3179      3182
      3178      3176      3179      3180      3178      3176      3179      3181
      3178      3176      3179      3182      3179      3182      3185      3186
      3179      3182      3185      3187      3179      3182      3185      3188
      3180      3179      3182      3183      3180      3179      3182      3184
      3180      3179      3182      3185      3181      3179      3182      3183
      3181      3179      3182      3184      3181      3179      3182      3185
      3183      3182      3185      3186      3183      3182      3185      3187
      3183      3182      3185      3188      3184      3182      3185      3186
      3184      3182      3185      3187      3184      3182      3185      3188
      3189      3193      3195      3196      3189      3193      3195      3197
      3189      3193      3198      3199      3189      3193      3198      3200
      3189      3193      3198      3204      3190      3189      3193      3194
      3190      3189      3193      3195      3190      3189      3193      3198
      3191      3189      3193      3194      3191      3189      3193      3195
      3191      3189      3193      3198      3192      3189      3193      3194
      3192      3189      3193      3195      3192      3189      3193      3198
      3193      3198      3204      3201      3194      3193      3195      3196
      3194      3193      3195      3197      3194      3193      3198      3199
      3194      3193      3198      3200      3194      3193      3198      3204
      3195      3193      3198      3199      3195      3193      3198      3200
      3195      3193      3198      3204      3196      3195      3193      3198
      3197      3195      3193      3198      3198      3204      3201      3202
      3198      3204      3201      3203      3198      3204      3201      3205
      3199      3198      3204      3201      3200      3198      3204      3201
      3201      3205      3206      3207      3201      3205      3206      3208
      3201      3205      3206      3209      3202      3201      3205      3206
      3203      3201      3205      3206      3204      3201      3205      3206
      3205      3206      3209      3210      3205      3206      3209      3211
      3205      3206      3209      3217      3206      3209      3211      3212
      3206      3209      3217      3218      3206      3209      3217      3219
      3206      3209      3217      3220      3207      3206      3209      3210
      3207      3206      3209      3211      3207      3206      3209      3217
      3208      3206      3209      3210      3208      3206      3209      3211
      3208      3206      3209      3217      3209      3211      3212      3213
      3209      3211      3212      3214      3209      3217      3220      3221
      3210      3209      3211      3212      3210      3209      3217      3218
      3210      3209      3217      3219      3210      3209      3217      3220
      3211      3209      3217      3218      3211      3209      3217      3219
      3211      3209      3217      3220      3211      3212      3214      3215
      3211      3212      3214      3216      3211      3212      3214      3226
      3212      3211      3209      3217      3212      3214      3226      3227
      3212      3214      3226      3228      3212      3214      3226      3229
      3213      3212      3214      3215      3213      3212      3214      3216
      3213      3212      3214      3226      3214      3226      3229      3230
      3214      3226      3229      3231      3214      3226      3229      3232
      3215      3214      3226      3227      3215      3214      3226      3228
      3215      3214      3226      3229      3216      3214      3226      3227
      3216      3214      3226      3228      3216      3214      3226      3229
      3217      3220      3221      3222      3217      3220      3221      3223
      3218      3217      3220      3221      3219      3217      3220      3221
      3220      3221      3223      3224      3220      3221      3223      3225
      3220      3221      3223      3273      3221      3223      3273      3274
      3221      3223      3273      3275      3221      3223      3273      3276
      3222      3221      3223      3224      3222      3221      3223      3225
      3222      3221      3223      3273      3223      3273      3276      3277
      3223      3273      3276      3278      3223      3273      3276      3279
      3224      3223      3273      3274      3224      3223      3273      3275
      3224      3223      3273      3276      3225      3223      3273      3274
      3225      3223      3273      3275      3225      3223      3273      3276
      3226      3229      3232      3233      3226      3229      3232      3234
      3226      3229      3232      3235      3227      3226      3229      3230
      3227      3226      3229      3231      3227      3226      3229      3232
      3228      3226      3229      3230      3228      3226      3229      3231
      3228      3226      3229      3232      3229      3232      3235      3236
      3229      3232      3235      3237      3229      3232      3235      3238
      3230      3229      3232      3233      3230      3229      3232      3234
      3230      3229      3232      3235      3231      3229      3232      3233
      3231      3229      3232      3234      3231      3229      3232      3235
      3232      3235      3238      3239      3232      3235      3238      3240
      3232      3235      3238      3241      3233      3232      3235      3236
      3233      3232      3235      3237      3233      3232      3235      3238
      3234      3232      3235      3236      3234      3232      3235      3237
      3234      3232      3235      3238      3235      3238      3241      3242
      3235      3238      3241      3243      3235      3238      3241      3244
      3236      3235      3238      3239      3236      3235      3238      3240
      3236      3235      3238      3241      3237      3235      3238      3239
      3237      3235      3238      3240      3237      3235      3238      3241
      3238      3241      3244      3245      3238      3241      3244      3246
      3239      3238      3241      3242      3239      3238      3241      3243
      3239      3238      3241      3244      3240      3238      3241      3242
      3240      3238      3241      3243      3240      3238      3241      3244
      3241      3244      3246      3247      3241      3244      3246      3248
      3242      3241      3244      3245      3242      3241      3244      3246
      3243      3241      3244      3245      3243      3241      3244      3246
      3244      3246      3248      3249      3244      3246      3248      3250
      3244      3246      3248      3251      3245      3244      3246      3247
      3245      3244      3246      3248      3246      3248      3251      3252
      3246      3248      3251      3253      3246      3248      3251      3254
      3247      3246      3248      3249      3247      3246      3248      3250
      3247      3246      3248      3251      3248      3251      3254      3255
      3248      3251      3254      3256      3248      3251      3254      3257
      3249      3248      3251      3252      3249      3248      3251      3253
      3249      3248      3251      3254      3250      3248      3251      3252
      3250      3248      3251      3253      3250      3248      3251      3254
      3251      3254      3257      3258      3251      3254      3257      3259
      3251      3254      3257      3260      3252      3251      3254      3255
      3252      3251      3254      3256      3252      3251      3254      3257
      3253      3251      3254      3255      3253      3251      3254      3256
      3253      3251      3254      3257      3254      3257      3260      3261
      3254      3257      3260      3262      3254      3257      3260      3263
      3255      3254      3257      3258      3255      3254      3257      3259
      3255      3254      3257      3260      3256      3254      3257      3258
      3256      3254      3257      3259      3256      3254      3257      3260
      3257      3260      3263      3264      3257      3260      3263      3265
      3257      3260      3263      3266      3258      3257      3260      3261
      3258      3257      3260      3262      3258      3257      3260      3263
      3259      3257      3260      3261      3259      3257      3260      3262
      3259      3257      3260      3263      3260      3263      3266      3267
      3260      3263      3266      3268      3260      3263      3266      3269
      3261      3260      3263      3264      3261      3260      3263      3265
      3261      3260      3263      3266      3262      3260      3263      3264
      3262      3260      3263      3265      3262      3260      3263      3266
      3263      3266      3269      3270      3263      3266      3269      3271
      3263      3266      3269      3272      3264      3263      3266      3267
      3264      3263      3266      3268      3264      3263      3266      3269
      3265      3263      3266      3267      3265      3263      3266      3268
      3265      3263      3266      3269      3267      3266      3269      3270
      3267      3266      3269      3271      3267      3266      3269      3272
      3268      3266      3269      3270      3268      3266      3269      3271
      3268      3266      3269      3272      3273      3276      3279      3280
      3273      3276      3279      3281      3273      3276      3279      3282
      3274      3273      3276      3277      3274      3273      3276      3278
      3274      3273      3276      3279      3275      3273      3276      3277
      3275      3273      3276      3278      3275      3273      3276      3279
      3276      3279      3282      3283      3276      3279      3282      3284
      3276      3279      3282      3285      3277      3276      3279      3280
      3277      3276      3279      3281      3277      3276      3279      3282
      3278      3276      3279      3280      3278      3276      3279      3281
      3278      3276      3279      3282      3279      3282      3285      3286
      3279      3282      3285      3287      3279      3282      3285      3288
      3280      3279      3282      3283      3280      3279      3282      3284
      3280      3279      3282      3285      3281      3279      3282      3283
      3281      3279      3282      3284      3281      3279      3282      3285
      3282      3285      3288      3289      3282      3285      3288      3290
      3282      3285      3288      3291      3283      3282      3285      3286
      3283      3282      3285      3287      3283      3282      3285      3288
      3284      3282      3285      3286      3284      3282      3285      3287
      3284      3282      3285      3288      3285      3288      3291      3292
      3285      3288      3291      3293      3285      3288      3291      3294
      3286      3285      3288      3289      3286      3285      3288      3290
      3286      3285      3288      3291      3287      3285      3288      3289
      3287      3285      3288      3290      3287      3285      3288      3291
      3288      3291      3294      3295      3288      3291      3294      3296
      3288      3291      3294      3297      3289      3288      3291      3292
      3289      3288      3291      3293      3289      3288      3291      3294
      3290      3288      3291      3292      3290      3288      3291      3293
      3290      3288      3291      3294      3291      3294      3297      3298
      3291      3294      3297      3299      3291      3294      3297      3300
      3292      3291      3294      3295      3292      3291      3294      3296
      3292      3291      3294      3297      3293      3291      3294      3295
      3293      3291      3294      3296      3293      3291      3294      3297
      3294      3297      3300      3301      3294      3297      3300      3302
      3294      3297      3300      3303      3295      3294      3297      3298
      3295      3294      3297      3299      3295      3294      3297      3300
      3296      3294      3297      3298      3296      3294      3297      3299
      3296      3294      3297      3300      3297      3300      3303      3304
      3297      3300      3303      3305      3297      3300      3303      3306
      3298      3297      3300      3301      3298      3297      3300      3302
      3298      3297      3300      3303      3299      3297      3300      3301
      3299      3297      3300      3302      3299      3297      3300      3303
      3300      3303      3306      3307      3300      3303      3306      3308
      3300      3303      3306      3309      3301      3300      3303      3304
      3301      3300      3303      3305      3301      3300      3303      3306
      3302      3300      3303      3304      3302      3300      3303      3305
      3302      3300      3303      3306      3303      3306      3309      3310
      3303      3306      3309      3311      3303      3306      3309      3312
      3304      3303      3306      3307      3304      3303      3306      3308
      3304      3303      3306      3309      3305      3303      3306      3307
      3305      3303      3306      3308      3305      3303      3306      3309
      3306      3309      3312      3313      3306      3309      3312      3314
      3306      3309      3312      3315      3307      3306      3309      3310
      3307      3306      3309      3311      3307      3306      3309      3312
      3308      3306      3309      3310      3308      3306      3309      3311
      3308      3306      3309      3312      3310      3309      3312      3313
      3310      3309      3312      3314      3310      3309      3312      3315
      3311      3309      3312      3313      3311      3309      3312      3314
      3311      3309      3312      3315      3316      3317      3332      3333
      3316      3317      3332      3334      3316      3317      3332      3338
      3317      3316      3320      3321      3317      3316      3320      3322
      3317      3316      3320      3323      3317      3316      3324      3325
      3317      3316      3324      3326      3317      3316      3324      3327
      3317      3316      3328      3329      3317      3316      3328      3330
      3317      3316      3328      3331      3317      3332      3338      3335
      3318      3317      3316      3320      3318      3317      3316      3324
      3318      3317      3316      3328      3318      3317      3332      3333
      3318      3317      3332      3334      3318      3317      3332      3338
      3319      3317      3316      3320      3319      3317      3316      3324
      3319      3317      3316      3328      3319      3317      3332      3333
      3319      3317      3332      3334      3319      3317      3332      3338
      3320      3316      3317      3332      3320      3316      3324      3325
      3320      3316      3324      3326      3320      3316      3324      3327
      3320      3316      3328      3329      3320      3316      3328      3330
      3320      3316      3328      3331      3321      3320      3316      3324
      3321      3320      3316      3328      3322      3320      3316      3324
      3322      3320      3316      3328      3323      3320      3316      3324
      3323      3320      3316      3328      3324      3316      3317      3332
      3324      3316      3328      3329      3324      3316      3328      3330
      3324      3316      3328      3331      3325      3324      3316      3328
      3326      3324      3316      3328      3327      3324      3316      3328
      3328      3316      3317      3332      3332      3338      3335      3336
      3332      3338      3335      3337      3332      3338      3335      3339
      3333      3332      3338      3335      3334      3332      3338      3335
      3335      3339      3340      3341      3335      3339      3340      3342
      3335      3339      3340      3343      3336      3335      3339      3340
      3337      3335      3339      3340      3338      3335      3339      3340
      3339      3340      3343      3344      3339      3340      3343      3345
      3339      3340      3343      3351      3340      3343      3345      3346
      3340      3343      3351      3352      3340      3343      3351      3353
      3340      3343      3351      3354      3341      3340      3343      3344
      3341      3340      3343      3345      3341      3340      3343      3351
      3342      3340      3343      3344      3342      3340      3343      3345
      3342      3340      3343      3351      3343      3345      3346      3347
      3343      3345      3346      3348      3343      3351      3354      3355
      3344      3343      3345      3346      3344      3343      3351      3352
      3344      3343      3351      3353      3344      3343      3351      3354
      3345      3343      3351      3352      3345      3343      3351      3353
      3345      3343      3351      3354      3345      3346      3348      3349
      3345      3346      3348      3350      3345      3346      3348      3360
      3346      3345      3343      3351      3346      3348      3360      3361
      3346      3348      3360      3362      3346      3348      3360      3363
      3347      3346      3348      3349      3347      3346      3348      3350
      3347      3346      3348      3360      3348      3360      3363      3364
      3348      3360      3363      3365      3348      3360      3363      3366
      3349      3348      3360      3361      3349      3348      3360      3362
      3349      3348      3360      3363      3350      3348      3360      3361
      3350      3348      3360      3362      3350      3348      3360      3363
      3351      3354      3355      3356      3351      3354      3355      3357
      3352      3351      3354      3355      3353      3351      3354      3355
      3354      3355      3357      3358      3354      3355      3357      3359
      3354      3355      3357      3407      3355      3357      3407      3408
      3355      3357      3407      3409      3355      3357      3407      3410
      3356      3355      3357      3358      3356      3355      3357      3359
      3356      3355      3357      3407      3357      3407      3410      3411
      3357      3407      3410      3412      3357      3407      3410      3413
      3358      3357      3407      3408      3358      3357      3407      3409
      3358      3357      3407      3410      3359      3357      3407      3408
      3359      3357      3407      3409      3359      3357      3407      3410
      3360      3363      3366      3367      3360      3363      3366      3368
      3360      3363      3366      3369      3361      3360      3363      3364
      3361      3360      3363      3365      3361      3360      3363      3366
      3362      3360      3363      3364      3362      3360      3363      3365
      3362      3360      3363      3366      3363      3366      3369      3370
      3363      3366      3369      3371      3363      3366      3369      3372
      3364      3363      3366      3367      3364      3363      3366      3368
      3364      3363      3366      3369      3365      3363      3366      3367
      3365      3363      3366      3368      3365      3363      3366      3369
      3366      3369      3372      3373      3366      3369      3372      3374
      3366      3369      3372      3375      3367      3366      3369      3370
      3367      3366      3369      3371      3367      3366      3369      3372
      3368      3366      3369      3370      3368      3366      3369      3371
      3368      3366      3369      3372      3369      3372      3375      3376
      3369      3372      3375      3377      3369      3372      3375      3378
      3370      3369      3372      3373      3370      3369      3372      3374
      3370      3369      3372      3375      3371      3369      3372      3373
      3371      3369      3372      3374      3371      3369      3372      3375
      3372      3375      3378      3379      3372      3375      3378      3380
      3373      3372      3375      3376      3373      3372      3375      3377
      3373      3372      3375      3378      3374      3372      3375      3376
      3374      3372      3375      3377      3374      3372      3375      3378
      3375      3378      3380      3381      3375      3378      3380      3382
      3376      3375      3378      3379      3376      3375      3378      3380
      3377      3375      3378      3379      3377      3375      3378      3380
      3378      3380      3382      3383      3378      3380      3382      3384
      3378      3380      3382      3385      3379      3378      3380      3381
      3379      3378      3380      3382      3380      3382      3385      3386
      3380      3382      3385      3387      3380      3382      3385      3388
      3381      3380      3382      3383      3381      3380      3382      3384
      3381      3380      3382      3385      3382      3385      3388      3389
      3382      3385      3388      3390      3382      3385      3388      3391
      3383      3382      3385      3386      3383      3382      3385      3387
      3383      3382      3385      3388      3384      3382      3385      3386
      3384      3382      3385      3387      3384      3382      3385      3388
      3385      3388      3391      3392      3385      3388      3391      3393
      3385      3388      3391      3394      3386      3385      3388      3389
      3386      3385      3388      3390      3386      3385      3388      3391
      3387      3385      3388      3389      3387      3385      3388      3390
      3387      3385      3388      3391      3388      3391      3394      3395
      3388      3391      3394      3396      3388      3391      3394      3397
      3389      3388      3391      3392      3389      3388      3391      3393
      3389      3388      3391      3394      3390      3388      3391      3392
      3390      3388      3391      3393      3390      3388      3391      3394
      3391      3394      3397      3398      3391      3394      3397      3399
      3391      3394      3397      3400      3392      3391      3394      3395
      3392      3391      3394      3396      3392      3391      3394      3397
      3393      3391      3394      3395      3393      3391      3394      3396
      3393      3391      3394      3397      3394      3397      3400      3401
      3394      3397      3400      3402      3394      3397      3400      3403
      3395      3394      3397      3398      3395      3394      3397      3399
      3395      3394      3397      3400      3396      3394      3397      3398
      3396      3394      3397      3399      3396      3394      3397      3400
      3397      3400      3403      3404      3397      3400      3403      3405
      3397      3400      3403      3406      3398      3397      3400      3401
      3398      3397      3400      3402      3398      3397      3400      3403
      3399      3397      3400      3401      3399      3397      3400      3402
      3399      3397      3400      3403      3401      3400      3403      3404
      3401      3400      3403      3405      3401      3400      3403      3406
      3402      3400      3403      3404      3402      3400      3403      3405
      3402      3400      3403      3406      3407      3410      3413      3414
      3407      3410      3413      3415      3407      3410      3413      3416
      3408      3407      3410      3411      3408      3407      3410      3412
      3408      3407      3410      3413      3409      3407      3410      3411
      3409      3407      3410      3412      3409      3407      3410      3413
      3410      3413      3416      3417      3410      3413      3416      3418
      3410      3413      3416      3419      3411      3410      3413      3414
      3411      3410      3413      3415      3411      3410      3413      3416
      3412      3410      3413      3414      3412      3410      3413      3415
      3412      3410      3413      3416      3413      3416      3419      3420
      3413      3416      3419      3421      3413      3416      3419      3422
      3414      3413      3416      3417      3414      3413      3416      3418
      3414      3413      3416      3419      3415      3413      3416      3417
      3415      3413      3416      3418      3415      3413      3416      3419
      3416      3419      3422      3423      3416      3419      3422      3424
      3416      3419      3422      3425      3417      3416      3419      3420
      3417      3416      3419      3421      3417      3416      3419      3422
      3418      3416      3419      3420      3418      3416      3419      3421
      3418      3416      3419      3422      3419      3422      3425      3426
      3419      3422      3425      3427      3419      3422      3425      3428
      3420      3419      3422      3423      3420      3419      3422      3424
      3420      3419      3422      3425      3421      3419      3422      3423
      3421      3419      3422      3424      3421      3419      3422      3425
      3422      3425      3428      3429      3422      3425      3428      3430
      3422      3425      3428      3431      3423      3422      3425      3426
      3423      3422      3425      3427      3423      3422      3425      3428
      3424      3422      3425      3426      3424      3422      3425      3427
      3424      3422      3425      3428      3425      3428      3431      3432
      3425      3428      3431      3433      3425      3428      3431      3434
      3426      3425      3428      3429      3426      3425      3428      3430
      3426      3425      3428      3431      3427      3425      3428      3429
      3427      3425      3428      3430      3427      3425      3428      3431
      3428      3431      3434      3435      3428      3431      3434      3436
      3428      3431      3434      3437      3429      3428      3431      3432
      3429      3428      3431      3433      3429      3428      3431      3434
      3430      3428      3431      3432      3430      3428      3431      3433
      3430      3428      3431      3434      3431      3434      3437      3438
      3431      3434      3437      3439      3431      3434      3437      3440
      3432      3431      3434      3435      3432      3431      3434      3436
      3432      3431      3434      3437      3433      3431      3434      3435
      3433      3431      3434      3436      3433      3431      3434      3437
      3434      3437      3440      3441      3434      3437      3440      3442
      3434      3437      3440      3443      3435      3434      3437      3438
      3435      3434      3437      3439      3435      3434      3437      3440
      3436      3434      3437      3438      3436      3434      3437      3439
      3436      3434      3437      3440      3437      3440      3443      3444
      3437      3440      3443      3445      3437      3440      3443      3446
      3438      3437      3440      3441      3438      3437      3440      3442
      3438      3437      3440      3443      3439      3437      3440      3441
      3439      3437      3440      3442      3439      3437      3440      3443
      3440      3443      3446      3447      3440      3443      3446      3448
      3440      3443      3446      3449      3441      3440      3443      3444
      3441      3440      3443      3445      3441      3440      3443      3446
      3442      3440      3443      3444      3442      3440      3443      3445
      3442      3440      3443      3446      3444      3443      3446      3447
      3444      3443      3446      3448      3444      3443      3446      3449
      3445      3443      3446      3447      3445      3443      3446      3448
      3445      3443      3446      3449      3450      3451      3466      3467
      3450      3451      3466      3468      3450      3451      3466      3472
      3451      3450      3454      3455      3451      3450      3454      3456
      3451      3450      3454      3457      3451      3450      3458      3459
      3451      3450      3458      3460      3451      3450      3458      3461
      3451      3450      3462      3463      3451      3450      3462      3464
      3451      3450      3462      3465      3451      3466      3472      3469
      3452      3451      3450      3454      3452      3451      3450      3458
      3452      3451      3450      3462      3452      3451      3466      3467
      3452      3451      3466      3468      3452      3451      3466      3472
      3453      3451      3450      3454      3453      3451      3450      3458
      3453      3451      3450      3462      3453      3451      3466      3467
      3453      3451      3466      3468      3453      3451      3466      3472
      3454      3450      3451      3466      3454      3450      3458      3459
      3454      3450      3458      3460      3454      3450      3458      3461
      3454      3450      3462      3463      3454      3450      3462      3464
      3454      3450      3462      3465      3455      3454      3450      3458
      3455      3454      3450      3462      3456      3454      3450      3458
      3456      3454      3450      3462      3457      3454      3450      3458
      3457      3454      3450      3462      3458      3450      3451      3466
      3458      3450      3462      3463      3458      3450      3462      3464
      3458      3450      3462      3465      3459      3458      3450      3462
      3460      3458      3450      3462      3461      3458      3450      3462
      3462      3450      3451      3466      3466      3472      3469      3470
      3466      3472      3469      3471      3466      3472      3469      3473
      3467      3466      3472      3469      3468      3466      3472      3469
      3469      3473      3474      3475      3469      3473      3474      3476
      3469      3473      3474      3477      3470      3469      3473      3474
      3471      3469      3473      3474      3472      3469      3473      3474
      3473      3474      3477      3478      3473      3474      3477      3479
      3473      3474      3477      3485      3474      3477      3479      3480
      3474      3477      3485      3486      3474      3477      3485      3487
      3474      3477      3485      3488      3475      3474      3477      3478
      3475      3474      3477      3479      3475      3474      3477      3485
      3476      3474      3477      3478      3476      3474      3477      3479
      3476      3474      3477      3485      3477      3479      3480      3481
      3477      3479      3480      3482      3477      3485      3488      3489
      3478      3477      3479      3480      3478      3477      3485      3486
      3478      3477      3485      3487      3478      3477      3485      3488
      3479      3477      3485      3486      3479      3477      3485      3487
      3479      3477      3485      3488      3479      3480      3482      3483
      3479      3480      3482      3484      3479      3480      3482      3494
      3480      3479      3477      3485      3480      3482      3494      3495
      3480      3482      3494      3496      3480      3482      3494      3497
      3481      3480      3482      3483      3481      3480      3482      3484
      3481      3480      3482      3494      3482      3494      3497      3498
      3482      3494      3497      3499      3482      3494      3497      3500
      3483      3482      3494      3495      3483      3482      3494      3496
      3483      3482      3494      3497      3484      3482      3494      3495
      3484      3482      3494      3496      3484      3482      3494      3497
      3485      3488      3489      3490      3485      3488      3489      3491
      3486      3485      3488      3489      3487      3485      3488      3489
      3488      3489      3491      3492      3488      3489      3491      3493
      3488      3489      3491      3541      3489      3491      3541      3542
      3489      3491      3541      3543      3489      3491      3541      3544
      3490      3489      3491      3492      3490      3489      3491      3493
      3490      3489      3491      3541      3491      3541      3544      3545
      3491      3541      3544      3546      3491      3541      3544      3547
      3492      3491      3541      3542      3492      3491      3541      3543
      3492      3491      3541      3544      3493      3491      3541      3542
      3493      3491      3541      3543      3493      3491      3541      3544
      3494      3497      3500      3501      3494      3497      3500      3502
      3494      3497      3500      3503      3495      3494      3497      3498
      3495      3494      3497      3499      3495      3494      3497      3500
      3496      3494      3497      3498      3496      3494      3497      3499
      3496      3494      3497      3500      3497      3500      3503      3504
      3497      3500      3503      3505      3497      3500      3503      3506
      3498      3497      3500      3501      3498      3497      3500      3502
      3498      3497      3500      3503      3499      3497      3500      3501
      3499      3497      3500      3502      3499      3497      3500      3503
      3500      3503      3506      3507      3500      3503      3506      3508
      3500      3503      3506      3509      3501      3500      3503      3504
      3501      3500      3503      3505      3501      3500      3503      3506
      3502      3500      3503      3504      3502      3500      3503      3505
      3502      3500      3503      3506      3503      3506      3509      3510
      3503      3506      3509      3511      3503      3506      3509      3512
      3504      3503      3506      3507      3504      3503      3506      3508
      3504      3503      3506      3509      3505      3503      3506      3507
      3505      3503      3506      3508      3505      3503      3506      3509
      3506      3509      3512      3513      3506      3509      3512      3514
      3507      3506      3509      3510      3507      3506      3509      3511
      3507      3506      3509      3512      3508      3506      3509      3510
      3508      3506      3509      3511      3508      3506      3509      3512
      3509      3512      3514      3515      3509      3512      3514      3516
      3510      3509      3512      3513      3510      3509      3512      3514
      3511      3509      3512      3513      3511      3509      3512      3514
      3512      3514      3516      3517      3512      3514      3516      3518
      3512      3514      3516      3519      3513      3512      3514      3515
      3513      3512      3514      3516      3514      3516      3519      3520
      3514      3516      3519      3521      3514      3516      3519      3522
      3515      3514      3516      3517      3515      3514      3516      3518
      3515      3514      3516      3519      3516      3519      3522      3523
      3516      3519      3522      3524      3516      3519      3522      3525
      3517      3516      3519      3520      3517      3516      3519      3521
      3517      3516      3519      3522      3518      3516      3519      3520
      3518      3516      3519      3521      3518      3516      3519      3522
      3519      3522      3525      3526      3519      3522      3525      3527
      3519      3522      3525      3528      3520      3519      3522      3523
      3520      3519      3522      3524      3520      3519      3522      3525
      3521      3519      3522      3523      3521      3519      3522      3524
      3521      3519      3522      3525      3522      3525      3528      3529
      3522      3525      3528      3530      3522      3525      3528      3531
      3523      3522      3525      3526      3523      3522      3525      3527
      3523      3522      3525      3528      3524      3522      3525      3526
      3524      3522      3525      3527      3524      3522      3525      3528
      3525      3528      3531      3532      3525      3528      3531      3533
      3525      3528      3531      3534      3526      3525      3528      3529
      3526      3525      3528      3530      3526      3525      3528      3531
      3527      3525      3528      3529      3527      3525      3528      3530
      3527      3525      3528      3531      3528      3531      3534      3535
      3528      3531      3534      3536      3528      3531      3534      3537
      3529      3528      3531      3532      3529      3528      3531      3533
      3529      3528      3531      3534      3530      3528      3531      3532
      3530      3528      3531      3533      3530      3528      3531      3534
      3531      3534      3537      3538      3531      3534      3537      3539
      3531      3534      3537      3540      3532      3531      3534      3535
      3532      3531      3534      3536      3532      3531      3534      3537
      3533      3531      3534      3535      3533      3531      3534      3536
      3533      3531      3534      3537      3535      3534      3537      3538
      3535      3534      3537      3539      3535      3534      3537      3540
      3536      3534      3537      3538      3536      3534      3537      3539
      3536      3534      3537      3540      3541      3544      3547      3548
      3541      3544      3547      3549      3541      3544      3547      3550
      3542      3541      3544      3545      3542      3541      3544      3546
      3542      3541      3544      3547      3543      3541      3544      3545
      3543      3541      3544      3546      3543      3541      3544      3547
      3544      3547      3550      3551      3544      3547      3550      3552
      3544      3547      3550      3553      3545      3544      3547      3548
      3545      3544      3547      3549      3545      3544      3547      3550
      3546      3544      3547      3548      3546      3544      3547      3549
      3546      3544      3547      3550      3547      3550      3553      3554
      3547      3550      3553      3555      3547      3550      3553      3556
      3548      3547      3550      3551      3548      3547      3550      3552
      3548      3547      3550      3553      3549      3547      3550      3551
      3549      3547      3550      3552      3549      3547      3550      3553
      3550      3553      3556      3557      3550      3553      3556      3558
      3550      3553      3556      3559      3551      3550      3553      3554
      3551      3550      3553      3555      3551      3550      3553      3556
      3552      3550      3553      3554      3552      3550      3553      3555
      3552      3550      3553      3556      3553      3556      3559      3560
      3553      3556      3559      3561      3553      3556      3559      3562
      3554      3553      3556      3557      3554      3553      3556      3558
      3554      3553      3556      3559      3555      3553      3556      3557
      3555      3553      3556      3558      3555      3553      3556      3559
      3556      3559      3562      3563      3556      3559      3562      3564
      3556      3559      3562      3565      3557      3556      3559      3560
      3557      3556      3559      3561      3557      3556      3559      3562
      3558      3556      3559      3560      3558      3556      3559      3561
      3558      3556      3559      3562      3559      3562      3565      3566
      3559      3562      3565      3567      3559      3562      3565      3568
      3560      3559      3562      3563      3560      3559      3562      3564
      3560      3559      3562      3565      3561      3559      3562      3563
      3561      3559      3562      3564      3561      3559      3562      3565
      3562      3565      3568      3569      3562      3565      3568      3570
      3562      3565      3568      3571      3563      3562      3565      3566
      3563      3562      3565      3567      3563      3562      3565      3568
      3564      3562      3565      3566      3564      3562      3565      3567
      3564      3562      3565      3568      3565      3568      3571      3572
      3565      3568      3571      3573      3565      3568      3571      3574
      3566      3565      3568      3569      3566      3565      3568      3570
      3566      3565      3568      3571      3567      3565      3568      3569
      3567      3565      3568      3570      3567      3565      3568      3571
      3568      3571      3574      3575      3568      3571      3574      3576
      3568      3571      3574      3577      3569      3568      3571      3572
      3569      3568      3571      3573      3569      3568      3571      3574
      3570      3568      3571      3572      3570      3568      3571      3573
      3570      3568      3571      3574      3571      3574      3577      3578
      3571      3574      3577      3579      3571      3574      3577      3580
      3572      3571      3574      3575      3572      3571      3574      3576
      3572      3571      3574      3577      3573      3571      3574      3575
      3573      3571      3574      3576      3573      3571      3574      3577
      3574      3577      3580      3581      3574      3577      3580      3582
      3574      3577      3580      3583      3575      3574      3577      3578
      3575      3574      3577      3579      3575      3574      3577      3580
      3576      3574      3577      3578      3576      3574      3577      3579
      3576      3574      3577      3580      3578      3577      3580      3581
      3578      3577      3580      3582      3578      3577      3580      3583
      3579      3577      3580      3581      3579      3577      3580      3582
      3579      3577      3580      3583      3584      3585      3600      3601
      3584      3585      3600      3602      3584      3585      3600      3606
      3585      3584      3588      3589      3585      3584      3588      3590
      3585      3584      3588      3591      3585      3584      3592      3593
      3585      3584      3592      3594      3585      3584      3592      3595
      3585      3584      3596      3597      3585      3584      3596      3598
      3585      3584      3596      3599      3585      3600      3606      3603
      3586      3585      3584      3588      3586      3585      3584      3592
      3586      3585      3584      3596      3586      3585      3600      3601
      3586      3585      3600      3602      3586      3585      3600      3606
      3587      3585      3584      3588      3587      3585      3584      3592
      3587      3585      3584      3596      3587      3585      3600      3601
      3587      3585      3600      3602      3587      3585      3600      3606
      3588      3584      3585      3600      3588      3584      3592      3593
      3588      3584      3592      3594      3588      3584      3592      3595
      3588      3584      3596      3597      3588      3584      3596      3598
      3588      3584      3596      3599      3589      3588      3584      3592
      3589      3588      3584      3596      3590      3588      3584      3592
      3590      3588      3584      3596      3591      3588      3584      3592
      3591      3588      3584      3596      3592      3584      3585      3600
      3592      3584      3596      3597      3592      3584      3596      3598
      3592      3584      3596      3599      3593      3592      3584      3596
      3594      3592      3584      3596      3595      3592      3584      3596
      3596      3584      3585      3600      3600      3606      3603      3604
      3600      3606      3603      3605      3600      3606      3603      3607
      3601      3600      3606      3603      3602      3600      3606      3603
      3603      3607      3608      3609      3603      3607      3608      3610
      3603      3607      3608      3611      3604      3603      3607      3608
      3605      3603      3607      3608      3606      3603      3607      3608
      3607      3608      3611      3612      3607      3608      3611      3613
      3607      3608      3611      3619      3608      3611      3613      3614
      3608      3611      3619      3620      3608      3611      3619      3621
      3608      3611      3619      3622      3609      3608      3611      3612
      3609      3608      3611      3613      3609      3608      3611      3619
      3610      3608      3611      3612      3610      3608      3611      3613
      3610      3608      3611      3619      3611      3613      3614      3615
      3611      3613      3614      3616      3611      3619      3622      3623
      3612      3611      3613      3614      3612      3611      3619      3620
      3612      3611      3619      3621      3612      3611      3619      3622
      3613      3611      3619      3620      3613      3611      3619      3621
      3613      3611      3619      3622      3613      3614      3616      3617
      3613      3614      3616      3618      3613      3614      3616      3628
      3614      3613      3611      3619      3614      3616      3628      3629
      3614      3616      3628      3630      3614      3616      3628      3631
      3615      3614      3616      3617      3615      3614      3616      3618
      3615      3614      3616      3628      3616      3628      3631      3632
      3616      3628      3631      3633      3616      3628      3631      3634
      3617      3616      3628      3629      3617      3616      3628      3630
      3617      3616      3628      3631      3618      3616      3628      3629
      3618      3616      3628      3630      3618      3616      3628      3631
      3619      3622      3623      3624      3619      3622      3623      3625
      3620      3619      3622      3623      3621      3619      3622      3623
      3622      3623      3625      3626      3622      3623      3625      3627
      3622      3623      3625      3675      3623      3625      3675      3676
      3623      3625      3675      3677      3623      3625      3675      3678
      3624      3623      3625      3626      3624      3623      3625      3627
      3624      3623      3625      3675      3625      3675      3678      3679
      3625      3675      3678      3680      3625      3675      3678      3681
      3626      3625      3675      3676      3626      3625      3675      3677
      3626      3625      3675      3678      3627      3625      3675      3676
      3627      3625      3675      3677      3627      3625      3675      3678
      3628      3631      3634      3635      3628      3631      3634      3636
      3628      3631      3634      3637      3629      3628      3631      3632
      3629      3628      3631      3633      3629      3628      3631      3634
      3630      3628      3631      3632      3630      3628      3631      3633
      3630      3628      3631      3634      3631      3634      3637      3638
      3631      3634      3637      3639      3631      3634      3637      3640
      3632      3631      3634      3635      3632      3631      3634      3636
      3632      3631      3634      3637      3633      3631      3634      3635
      3633      3631      3634      3636      3633      3631      3634      3637
      3634      3637      3640      3641      3634      3637      3640      3642
      3634      3637      3640      3643      3635      3634      3637      3638
      3635      3634      3637      3639      3635      3634      3637      3640
      3636      3634      3637      3638      3636      3634      3637      3639
      3636      3634      3637      3640      3637      3640      3643      3644
      3637      3640      3643      3645      3637      3640      3643      3646
      3638      3637      3640      3641      3638      3637      3640      3642
      3638      3637      3640      3643      3639      3637      3640      3641
      3639      3637      3640      3642      3639      3637      3640      3643
      3640      3643      3646      3647      3640      3643      3646      3648
      3641      3640      3643      3644      3641      3640      3643      3645
      3641      3640      3643      3646      3642      3640      3643      3644
      3642      3640      3643      3645      3642      3640      3643      3646
      3643      3646      3648      3649      3643      3646      3648      3650
      3644      3643      3646      3647      3644      3643      3646      3648
      3645      3643      3646      3647      3645      3643      3646      3648
      3646      3648      3650      3651      3646      3648      3650      3652
      3646      3648      3650      3653      3647      3646      3648      3649
      3647      3646      3648      3650      3648      3650      3653      3654
      3648      3650      3653      3655      3648      3650      3653      3656
      3649      3648      3650      3651      3649      3648      3650      3652
      3649      3648      3650      3653      3650      3653      3656      3657
      3650      3653      3656      3658      3650      3653      3656      3659
      3651      3650      3653      3654      3651      3650      3653      3655
      3651      3650      3653      3656      3652      3650      3653      3654
      3652      3650      3653      3655      3652      3650      3653      3656
      3653      3656      3659      3660      3653      3656      3659      3661
      3653      3656      3659      3662      3654      3653      3656      3657
      3654      3653      3656      3658      3654      3653      3656      3659
      3655      3653      3656      3657      3655      3653      3656      3658
      3655      3653      3656      3659      3656      3659      3662      3663
      3656      3659      3662      3664      3656      3659      3662      3665
      3657      3656      3659      3660      3657      3656      3659      3661
      3657      3656      3659      3662      3658      3656      3659      3660
      3658      3656      3659      3661      3658      3656      3659      3662
      3659      3662      3665      3666      3659      3662      3665      3667
      3659      3662      3665      3668      3660      3659      3662      3663
      3660      3659      3662      3664      3660      3659      3662      3665
      3661      3659      3662      3663      3661      3659      3662      3664
      3661      3659      3662      3665      3662      3665      3668      3669
      3662      3665      3668      3670      3662      3665      3668      3671
      3663      3662      3665      3666      3663      3662      3665      3667
      3663      3662      3665      3668      3664      3662      3665      3666
      3664      3662      3665      3667      3664      3662      3665      3668
      3665      3668      3671      3672      3665      3668      3671      3673
      3665      3668      3671      3674      3666      3665      3668      3669
      3666      3665      3668      3670      3666      3665      3668      3671
      3667      3665      3668      3669      3667      3665      3668      3670
      3667      3665      3668      3671      3669      3668      3671      3672
      3669      3668      3671      3673      3669      3668      3671      3674
      3670      3668      3671      3672      3670      3668      3671      3673
      3670      3668      3671      3674      3675      3678      3681      3682
      3675      3678      3681      3683      3675      3678      3681      3684
      3676      3675      3678      3679      3676      3675      3678      3680
      3676      3675      3678      3681      3677      3675      3678      3679
      3677      3675      3678      3680      3677      3675      3678      3681
      3678      3681      3684      3685      3678      3681      3684      3686
      3678      3681      3684      3687      3679      3678      3681      3682
      3679      3678      3681      3683      3679      3678      3681      3684
      3680      3678      3681      3682      3680      3678      3681      3683
      3680      3678      3681      3684      3681      3684      3687      3688
      3681      3684      3687      3689      3681      3684      3687      3690
      3682      3681      3684      3685      3682      3681      3684      3686
      3682      3681      3684      3687      3683      3681      3684      3685
      3683      3681      3684      3686      3683      3681      3684      3687
      3684      3687      3690      3691      3684      3687      3690      3692
      3684      3687      3690      3693      3685      3684      3687      3688
      3685      3684      3687      3689      3685      3684      3687      3690
      3686      3684      3687      3688      3686      3684      3687      3689
      3686      3684      3687      3690      3687      3690      3693      3694
      3687      3690      3693      3695      3687      3690      3693      3696
      3688      3687      3690      3691      3688      3687      3690      3692
      3688      3687      3690      3693      3689      3687      3690      3691
      3689      3687      3690      3692      3689      3687      3690      3693
      3690      3693      3696      3697      3690      3693      3696      3698
      3690      3693      3696      3699      3691      3690      3693      3694
      3691      3690      3693      3695      3691      3690      3693      3696
      3692      3690      3693      3694      3692      3690      3693      3695
      3692      3690      3693      3696      3693      3696      3699      3700
      3693      3696      3699      3701      3693      3696      3699      3702
      3694      3693      3696      3697      3694      3693      3696      3698
      3694      3693      3696      3699      3695      3693      3696      3697
      3695      3693      3696      3698      3695      3693      3696      3699
      3696      3699      3702      3703      3696      3699      3702      3704
      3696      3699      3702      3705      3697      3696      3699      3700
      3697      3696      3699      3701      3697      3696      3699      3702
      3698      3696      3699      3700      3698      3696      3699      3701
      3698      3696      3699      3702      3699      3702      3705      3706
      3699      3702      3705      3707      3699      3702      3705      3708
      3700      3699      3702      3703      3700      3699      3702      3704
      3700      3699      3702      3705      3701      3699      3702      3703
      3701      3699      3702      3704      3701      3699      3702      3705
      3702      3705      3708      3709      3702      3705      3708      3710
      3702      3705      3708      3711      3703      3702      3705      3706
      3703      3702      3705      3707      3703      3702      3705      3708
      3704      3702      3705      3706      3704      3702      3705      3707
      3704      3702      3705      3708      3705      3708      3711      3712
      3705      3708      3711      3713      3705      3708      3711      3714
      3706      3705      3708      3709      3706      3705      3708      3710
      3706      3705      3708      3711      3707      3705      3708      3709
      3707      3705      3708      3710      3707      3705      3708      3711
      3708      3711      3714      3715      3708      3711      3714      3716
      3708      3711      3714      3717      3709      3708      3711      3712
      3709      3708      3711      3713      3709      3708      3711      3714
      3710      3708      3711      3712      3710      3708      3711      3713
      3710      3708      3711      3714      3712      3711      3714      3715
      3712      3711      3714      3716      3712      3711      3714      3717
      3713      3711      3714      3715      3713      3711      3714      3716
      3713      3711      3714      3717      3718      3719      3734      3735
      3718      3719      3734      3736      3718      3719      3734      3740
      3719      3718      3722      3723      3719      3718      3722      3724
      3719      3718      3722      3725      3719      3718      3726      3727
      3719      3718      3726      3728      3719      3718      3726      3729
      3719      3718      3730      3731      3719      3718      3730      3732
      3719      3718      3730      3733      3719      3734      3740      3737
      3720      3719      3718      3722      3720      3719      3718      3726
      3720      3719      3718      3730      3720      3719      3734      3735
      3720      3719      3734      3736      3720      3719      3734      3740
      3721      3719      3718      3722      3721      3719      3718      3726
      3721      3719      3718      3730      3721      3719      3734      3735
      3721      3719      3734      3736      3721      3719      3734      3740
      3722      3718      3719      3734      3722      3718      3726      3727
      3722      3718      3726      3728      3722      3718      3726      3729
      3722      3718      3730      3731      3722      3718      3730      3732
      3722      3718      3730      3733      3723      3722      3718      3726
      3723      3722      3718      3730      3724      3722      3718      3726
      3724      3722      3718      3730      3725      3722      3718      3726
      3725      3722      3718      3730      3726      3718      3719      3734
      3726      3718      3730      3731      3726      3718      3730      3732
      3726      3718      3730      3733      3727      3726      3718      3730
      3728      3726      3718      3730      3729      3726      3718      3730
      3730      3718      3719      3734      3734      3740      3737      3738
      3734      3740      3737      3739      3734      3740      3737      3741
      3735      3734      3740      3737      3736      3734      3740      3737
      3737      3741      3742      3743      3737      3741      3742      3744
      3737      3741      3742      3745      3738      3737      3741      3742
      3739      3737      3741      3742      3740      3737      3741      3742
      3741      3742      3745      3746      3741      3742      3745      3747
      3741      3742      3745      3753      3742      3745      3747      3748
      3742      3745      3753      3754      3742      3745      3753      3755
      3742      3745      3753      3756      3743      3742      3745      3746
      3743      3742      3745      3747      3743      3742      3745      3753
      3744      3742      3745      3746      3744      3742      3745      3747
      3744      3742      3745      3753      3745      3747      3748      3749
      3745      3747      3748      3750      3745      3753      3756      3757
      3746      3745      3747      3748      3746      3745      3753      3754
      3746      3745      3753      3755      3746      3745      3753      3756
      3747      3745      3753      3754      3747      3745      3753      3755
      3747      3745      3753      3756      3747      3748      3750      3751
      3747      3748      3750      3752      3747      3748      3750      3762
      3748      3747      3745      3753      3748      3750      3762      3763
      3748      3750      3762      3764      3748      3750      3762      3765
      3749      3748      3750      3751      3749      3748      3750      3752
      3749      3748      3750      3762      3750      3762      3765      3766
      3750      3762      3765      3767      3750      3762      3765      3768
      3751      3750      3762      3763      3751      3750      3762      3764
      3751      3750      3762      3765      3752      3750      3762      3763
      3752      3750      3762      3764      3752      3750      3762      3765
      3753      3756      3757      3758      3753      3756      3757      3759
      3754      3753      3756      3757      3755      3753      3756      3757
      3756      3757      3759      3760      3756      3757      3759      3761
      3756      3757      3759      3809      3757      3759      3809      3810
      3757      3759      3809      3811      3757      3759      3809      3812
      3758      3757      3759      3760      3758      3757      3759      3761
      3758      3757      3759      3809      3759      3809      3812      3813
      3759      3809      3812      3814      3759      3809      3812      3815
      3760      3759      3809      3810      3760      3759      3809      3811
      3760      3759      3809      3812      3761      3759      3809      3810
      3761      3759      3809      3811      3761      3759      3809      3812
      3762      3765      3768      3769      3762      3765      3768      3770
      3762      3765      3768      3771      3763      3762      3765      3766
      3763      3762      3765      3767      3763      3762      3765      3768
      3764      3762      3765      3766      3764      3762      3765      3767
      3764      3762      3765      3768      3765      3768      3771      3772
      3765      3768      3771      3773      3765      3768      3771      3774
      3766      3765      3768      3769      3766      3765      3768      3770
      3766      3765      3768      3771      3767      3765      3768      3769
      3767      3765      3768      3770      3767      3765      3768      3771
      3768      3771      3774      3775      3768      3771      3774      3776
      3768      3771      3774      3777      3769      3768      3771      3772
      3769      3768      3771      3773      3769      3768      3771      3774
      3770      3768      3771      3772      3770      3768      3771      3773
      3770      3768      3771      3774      3771      3774      3777      3778
      3771      3774      3777      3779      3771      3774      3777      3780
      3772      3771      3774      3775      3772      3771      3774      3776
      3772      3771      3774      3777      3773      3771      3774      3775
      3773      3771      3774      3776      3773      3771      3774      3777
      3774      3777      3780      3781      3774      3777      3780      3782
      3775      3774      3777      3778      3775      3774      3777      3779
      3775      3774      3777      3780      3776      3774      3777      3778
      3776      3774      3777      3779      3776      3774      3777      3780
      3777      3780      3782      3783      3777      3780      3782      3784
      3778      3777      3780      3781      3778      3777      3780      3782
      3779      3777      3780      3781      3779      3777      3780      3782
      3780      3782      3784      3785      3780      3782      3784      3786
      3780      3782      3784      3787      3781      3780      3782      3783
      3781      3780      3782      3784      3782      3784      3787      3788
      3782      3784      3787      3789      3782      3784      3787      3790
      3783      3782      3784      3785      3783      3782      3784      3786
      3783      3782      3784      3787      3784      3787      3790      3791
      3784      3787      3790      3792      3784      3787      3790      3793
      3785      3784      3787      3788      3785      3784      3787      3789
      3785      3784      3787      3790      3786      3784      3787      3788
      3786      3784      3787      3789      3786      3784      3787      3790
      3787      3790      3793      3794      3787      3790      3793      3795
      3787      3790      3793      3796      3788      3787      3790      3791
      3788      3787      3790      3792      3788      3787      3790      3793
      3789      3787      3790      3791      3789      3787      3790      3792
      3789      3787      3790      3793      3790      3793      3796      3797
      3790      3793      3796      3798      3790      3793      3796      3799
      3791      3790      3793      3794      3791      3790      3793      3795
      3791      3790      3793      3796      3792      3790      3793      3794
      3792      3790      3793      3795      3792      3790      3793      3796
      3793      3796      3799      3800      3793      3796      3799      3801
      3793      3796      3799      3802      3794      3793      3796      3797
      3794      3793      3796      3798      3794      3793      3796      3799
      3795      3793      3796      3797      3795      3793      3796      3798
      3795      3793      3796      3799      3796      3799      3802      3803
      3796      3799      3802      3804      3796      3799      3802      3805
      3797      3796      3799      3800      3797      3796      3799      3801
      3797      3796      3799      3802      3798      3796      3799      3800
      3798      3796      3799      3801      3798      3796      3799      3802
      3799      3802      3805      3806      3799      3802      3805      3807
      3799      3802      3805      3808      3800      3799      3802      3803
      3800      3799      3802      3804      3800      3799      3802      3805
      3801      3799      3802      3803      3801      3799      3802      3804
      3801      3799      3802      3805      3803      3802      3805      3806
      3803      3802      3805      3807      3803      3802      3805      3808
      3804      3802      3805      3806      3804      3802      3805      3807
      3804      3802      3805      3808      3809      3812      3815      3816
      3809      3812      3815      3817      3809      3812      3815      3818
      3810      3809      3812      3813      3810      3809      3812      3814
      3810      3809      3812      3815      3811      3809      3812      3813
      3811      3809      3812      3814      3811      3809      3812      3815
      3812      3815      3818      3819      3812      3815      3818      3820
      3812      3815      3818      3821      3813      3812      3815      3816
      3813      3812      3815      3817      3813      3812      3815      3818
      3814      3812      3815      3816      3814      3812      3815      3817
      3814      3812      3815      3818      3815      3818      3821      3822
      3815      3818      3821      3823      3815      3818      3821      3824
      3816      3815      3818      3819      3816      3815      3818      3820
      3816      3815      3818      3821      3817      3815      3818      3819
      3817      3815      3818      3820      3817      3815      3818      3821
      3818      3821      3824      3825      3818      3821      3824      3826
      3818      3821      3824      3827      3819      3818      3821      3822
      3819      3818      3821      3823      3819      3818      3821      3824
      3820      3818      3821      3822      3820      3818      3821      3823
      3820      3818      3821      3824      3821      3824      3827      3828
      3821      3824      3827      3829      3821      3824      3827      3830
      3822      3821      3824      3825      3822      3821      3824      3826
      3822      3821      3824      3827      3823      3821      3824      3825
      3823      3821      3824      3826      3823      3821      3824      3827
      3824      3827      3830      3831      3824      3827      3830      3832
      3824      3827      3830      3833      3825      3824      3827      3828
      3825      3824      3827      3829      3825      3824      3827      3830
      3826      3824      3827      3828      3826      3824      3827      3829
      3826      3824      3827      3830      3827      3830      3833      3834
      3827      3830      3833      3835      3827      3830      3833      3836
      3828      3827      3830      3831      3828      3827      3830      3832
      3828      3827      3830      3833      3829      3827      3830      3831
      3829      3827      3830      3832      3829      3827      3830      3833
      3830      3833      3836      3837      3830      3833      3836      3838
      3830      3833      3836      3839      3831      3830      3833      3834
      3831      3830      3833      3835      3831      3830      3833      3836
      3832      3830      3833      3834      3832      3830      3833      3835
      3832      3830      3833      3836      3833      3836      3839      3840
      3833      3836      3839      3841      3833      3836      3839      3842
      3834      3833      3836      3837      3834      3833      3836      3838
      3834      3833      3836      3839      3835      3833      3836      3837
      3835      3833      3836      3838      3835      3833      3836      3839
      3836      3839      3842      3843      3836      3839      3842      3844
      3836      3839      3842      3845      3837      3836      3839      3840
      3837      3836      3839      3841      3837      3836      3839      3842
      3838      3836      3839      3840      3838      3836      3839      3841
      3838      3836      3839      3842      3839      3842      3845      3846
      3839      3842      3845      3847      3839      3842      3845      3848
      3840      3839      3842      3843      3840      3839      3842      3844
      3840      3839      3842      3845      3841      3839      3842      3843
      3841      3839      3842      3844      3841      3839      3842      3845
      3842      3845      3848      3849      3842      3845      3848      3850
      3842      3845      3848      3851      3843      3842      3845      3846
      3843      3842      3845      3847      3843      3842      3845      3848
      3844      3842      3845      3846      3844      3842      3845      3847
      3844      3842      3845      3848      3846      3845      3848      3849
      3846      3845      3848      3850      3846      3845      3848      3851
      3847      3845      3848      3849      3847      3845      3848      3850
      3847      3845      3848      3851      3852      3853      3868      3869
      3852      3853      3868      3870      3852      3853      3868      3874
      3853      3852      3856      3857      3853      3852      3856      3858
      3853      3852      3856      3859      3853      3852      3860      3861
      3853      3852      3860      3862      3853      3852      3860      3863
      3853      3852      3864      3865      3853      3852      3864      3866
      3853      3852      3864      3867      3853      3868      3874      3871
      3854      3853      3852      3856      3854      3853      3852      3860
      3854      3853      3852      3864      3854      3853      3868      3869
      3854      3853      3868      3870      3854      3853      3868      3874
      3855      3853      3852      3856      3855      3853      3852      3860
      3855      3853      3852      3864      3855      3853      3868      3869
      3855      3853      3868      3870      3855      3853      3868      3874
      3856      3852      3853      3868      3856      3852      3860      3861
      3856      3852      3860      3862      3856      3852      3860      3863
      3856      3852      3864      3865      3856      3852      3864      3866
      3856      3852      3864      3867      3857      3856      3852      3860
      3857      3856      3852      3864      3858      3856      3852      3860
      3858      3856      3852      3864      3859      3856      3852      3860
      3859      3856      3852      3864      3860      3852      3853      3868
      3860      3852      3864      3865      3860      3852      3864      3866
      3860      3852      3864      3867      3861      3860      3852      3864
      3862      3860      3852      3864      3863      3860      3852      3864
      3864      3852      3853      3868      3868      3874      3871      3872
      3868      3874      3871      3873      3868      3874      3871      3875
      3869      3868      3874      3871      3870      3868      3874      3871
      3871      3875      3876      3877      3871      3875      3876      3878
      3871      3875      3876      3879      3872      3871      3875      3876
      3873      3871      3875      3876      3874      3871      3875      3876
      3875      3876      3879      3880      3875      3876      3879      3881
      3875      3876      3879      3887      3876      3879      3881      3882
      3876      3879      3887      3888      3876      3879      3887      3889
      3876      3879      3887      3890      3877      3876      3879      3880
      3877      3876      3879      3881      3877      3876      3879      3887
      3878      3876      3879      3880      3878      3876      3879      3881
      3878      3876      3879      3887      3879      3881      3882      3883
      3879      3881      3882      3884      3879      3887      3890      3891
      3880      3879      3881      3882      3880      3879      3887      3888
      3880      3879      3887      3889      3880      3879      3887      3890
      3881      3879      3887      3888      3881      3879      3887      3889
      3881      3879      3887      3890      3881      3882      3884      3885
      3881      3882      3884      3886      3881      3882      3884      3896
      3882      3881      3879      3887      3882      3884      3896      3897
      3882      3884      3896      3898      3882      3884      3896      3899
      3883      3882      3884      3885      3883      3882      3884      3886
      3883      3882      3884      3896      3884      3896      3899      3900
      3884      3896      3899      3901      3884      3896      3899      3902
      3885      3884      3896      3897      3885      3884      3896      3898
      3885      3884      3896      3899      3886      3884      3896      3897
      3886      3884      3896      3898      3886      3884      3896      3899
      3887      3890      3891      3892      3887      3890      3891      3893
      3888      3887      3890      3891      3889      3887      3890      3891
      3890      3891      3893      3894      3890      3891      3893      3895
      3890      3891      3893      3943      3891      3893      3943      3944
      3891      3893      3943      3945      3891      3893      3943      3946
      3892      3891      3893      3894      3892      3891      3893      3895
      3892      3891      3893      3943      3893      3943      3946      3947
      3893      3943      3946      3948      3893      3943      3946      3949
      3894      3893      3943      3944      3894      3893      3943      3945
      3894      3893      3943      3946      3895      3893      3943      3944
      3895      3893      3943      3945      3895      3893      3943      3946
      3896      3899      3902      3903      3896      3899      3902      3904
      3896      3899      3902      3905      3897      3896      3899      3900
      3897      3896      3899      3901      3897      3896      3899      3902
      3898      3896      3899      3900      3898      3896      3899      3901
      3898      3896      3899      3902      3899      3902      3905      3906
      3899      3902      3905      3907      3899      3902      3905      3908
      3900      3899      3902      3903      3900      3899      3902      3904
      3900      3899      3902      3905      3901      3899      3902      3903
      3901      3899      3902      3904      3901      3899      3902      3905
      3902      3905      3908      3909      3902      3905      3908      3910
      3902      3905      3908      3911      3903      3902      3905      3906
      3903      3902      3905      3907      3903      3902      3905      3908
      3904      3902      3905      3906      3904      3902      3905      3907
      3904      3902      3905      3908      3905      3908      3911      3912
      3905      3908      3911      3913      3905      3908      3911      3914
      3906      3905      3908      3909      3906      3905      3908      3910
      3906      3905      3908      3911      3907      3905      3908      3909
      3907      3905      3908      3910      3907      3905      3908      3911
      3908      3911      3914      3915      3908      3911      3914      3916
      3909      3908      3911      3912      3909      3908      3911      3913
      3909      3908      3911      3914      3910      3908      3911      3912
      3910      3908      3911      3913      3910      3908      3911      3914
      3911      3914      3916      3917      3911      3914      3916      3918
      3912      3911      3914      3915      3912      3911      3914      3916
      3913      3911      3914      3915      3913      3911      3914      3916
      3914      3916      3918      3919      3914      3916      3918      3920
      3914      3916      3918      3921      3915      3914      3916      3917
      3915      3914      3916      3918      3916      3918      3921      3922
      3916      3918      3921      3923      3916      3918      3921      3924
      3917      3916      3918      3919      3917      3916      3918      3920
      3917      3916      3918      3921      3918      3921      3924      3925
      3918      3921      3924      3926      3918      3921      3924      3927
      3919      3918      3921      3922      3919      3918      3921      3923
      3919      3918      3921      3924      3920      3918      3921      3922
      3920      3918      3921      3923      3920      3918      3921      3924
      3921      3924      3927      3928      3921      3924      3927      3929
      3921      3924      3927      3930      3922      3921      3924      3925
      3922      3921      3924      3926      3922      3921      3924      3927
      3923      3921      3924      3925      3923      3921      3924      3926
      3923      3921      3924      3927      3924      3927      3930      3931
      3924      3927      3930      3932      3924      3927      3930      3933
      3925      3924      3927      3928      3925      3924      3927      3929
      3925      3924      3927      3930      3926      3924      3927      3928
      3926      3924      3927      3929      3926      3924      3927      3930
      3927      3930      3933      3934      3927      3930      3933      3935
      3927      3930      3933      3936      3928      3927      3930      3931
      3928      3927      3930      3932      3928      3927      3930      3933
      3929      3927      3930      3931      3929      3927      3930      3932
      3929      3927      3930      3933      3930      3933      3936      3937
      3930      3933      3936      3938      3930      3933      3936      3939
      3931      3930      3933      3934      3931      3930      3933      3935
      3931      3930      3933      3936      3932      3930      3933      3934
      3932      3930      3933      3935      3932      3930      3933      3936
      3933      3936      3939      3940      3933      3936      3939      3941
      3933      3936      3939      3942      3934      3933      3936      3937
      3934      3933      3936      3938      3934      3933      3936      3939
      3935      3933      3936      3937      3935      3933      3936      3938
      3935      3933      3936      3939      3937      3936      3939      3940
      3937      3936      3939      3941      3937      3936      3939      3942
      3938      3936      3939      3940      3938      3936      3939      3941
      3938      3936      3939      3942      3943      3946      3949      3950
      3943      3946      3949      3951      3943      3946      3949      3952
      3944      3943      3946      3947      3944      3943      3946      3948
      3944      3943      3946      3949      3945      3943      3946      3947
      3945      3943      3946      3948      3945      3943      3946      3949
      3946      3949      3952      3953      3946      3949      3952      3954
      3946      3949      3952      3955      3947      3946      3949      3950
      3947      3946      3949      3951      3947      3946      3949      3952
      3948      3946      3949      3950      3948      3946      3949      3951
      3948      3946      3949      3952      3949      3952      3955      3956
      3949      3952      3955      3957      3949      3952      3955      3958
      3950      3949      3952      3953      3950      3949      3952      3954
      3950      3949      3952      3955      3951      3949      3952      3953
      3951      3949      3952      3954      3951      3949      3952      3955
      3952      3955      3958      3959      3952      3955      3958      3960
      3952      3955      3958      3961      3953      3952      3955      3956
      3953      3952      3955      3957      3953      3952      3955      3958
      3954      3952      3955      3956      3954      3952      3955      3957
      3954      3952      3955      3958      3955      3958      3961      3962
      3955      3958      3961      3963      3955      3958      3961      3964
      3956      3955      3958      3959      3956      3955      3958      3960
      3956      3955      3958      3961      3957      3955      3958      3959
      3957      3955      3958      3960      3957      3955      3958      3961
      3958      3961      3964      3965      3958      3961      3964      3966
      3958      3961      3964      3967      3959      3958      3961      3962
      3959      3958      3961      3963      3959      3958      3961      3964
      3960      3958      3961      3962      3960      3958      3961      3963
      3960      3958      3961      3964      3961      3964      3967      3968
      3961      3964      3967      3969      3961      3964      3967      3970
      3962      3961      3964      3965      3962      3961      3964      3966
      3962      3961      3964      3967      3963      3961      3964      3965
      3963      3961      3964      3966      3963      3961      3964      3967
      3964      3967      3970      3971      3964      3967      3970      3972
      3964      3967      3970      3973      3965      3964      3967      3968
      3965      3964      3967      3969      3965      3964      3967      3970
      3966      3964      3967      3968      3966      3964      3967      3969
      3966      3964      3967      3970      3967      3970      3973      3974
      3967      3970      3973      3975      3967      3970      3973      3976
      3968      3967      3970      3971      3968      3967      3970      3972
      3968      3967      3970      3973      3969      3967      3970      3971
      3969      3967      3970      3972      3969      3967      3970      3973
      3970      3973      3976      3977      3970      3973      3976      3978
      3970      3973      3976      3979      3971      3970      3973      3974
      3971      3970      3973      3975      3971      3970      3973      3976
      3972      3970      3973      3974      3972      3970      3973      3975
      3972      3970      3973      3976      3973      3976      3979      3980
      3973      3976      3979      3981      3973      3976      3979      3982
      3974      3973      3976      3977      3974      3973      3976      3978
      3974      3973      3976      3979      3975      3973      3976      3977
      3975      3973      3976      3978      3975      3973      3976      3979
      3976      3979      3982      3983      3976      3979      3982      3984
      3976      3979      3982      3985      3977      3976      3979      3980
      3977      3976      3979      3981      3977      3976      3979      3982
      3978      3976      3979      3980      3978      3976      3979      3981
      3978      3976      3979      3982      3980      3979      3982      3983
      3980      3979      3982      3984      3980      3979      3982      3985
      3981      3979      3982      3983      3981      3979      3982      3984
      3981      3979      3982      3985      3986      3990      3992      3993
      3986      3990      3992      3994      3986      3990      3995      3996
      3986      3990      3995      3997      3986      3990      3995      4001
      3987      3986      3990      3991      3987      3986      3990      3992
      3987      3986      3990      3995      3988      3986      3990      3991
      3988      3986      3990      3992      3988      3986      3990      3995
      3989      3986      3990      3991      3989      3986      3990      3992
      3989      3986      3990      3995      3990      3995      4001      3998
      3991      3990      3992      3993      3991      3990      3992      3994
      3991      3990      3995      3996      3991      3990      3995      3997
      3991      3990      3995      4001      3992      3990      3995      3996
      3992      3990      3995      3997      3992      3990      3995      4001
      3993      3992      3990      3995      3994      3992      3990      3995
      3995      4001      3998      3999      3995      4001      3998      4000
      3995      4001      3998      4002      3996      3995      4001      3998
      3997      3995      4001      3998      3998      4002      4003      4004
      3998      4002      4003      4005      3998      4002      4003      4006
      3999      3998      4002      4003      4000      3998      4002      4003
      4001      3998      4002      4003      4002      4003      4006      4007
      4002      4003      4006      4008      4002      4003      4006      4014
      4003      4006      4008      4009      4003      4006      4014      4015
      4003      4006      4014      4016      4003      4006      4014      4017
      4004      4003      4006      4007      4004      4003      4006      4008
      4004      4003      4006      4014      4005      4003      4006      4007
      4005      4003      4006      4008      4005      4003      4006      4014
      4006      4008      4009      4010      4006      4008      4009      4011
      4006      4014      4017      4018      4007      4006      4008      4009
      4007      4006      4014      4015      4007      4006      4014      4016
      4007      4006      4014      4017      4008      4006      4014      4015
      4008      4006      4014      4016      4008      4006      4014      4017
      4008      4009      4011      4012      4008      4009      4011      4013
      4008      4009      4011      4023      4009      4008      4006      4014
      4009      4011      4023      4024      4009      4011      4023      4025
      4009      4011      4023      4026      4010      4009      4011      4012
      4010      4009      4011      4013      4010      4009      4011      4023
      4011      4023      4026      4027      4011      4023      4026      4028
      4011      4023      4026      4029      4012      4011      4023      4024
      4012      4011      4023      4025      4012      4011      4023      4026
      4013      4011      4023      4024      4013      4011      4023      4025
      4013      4011      4023      4026      4014      4017      4018      4019
      4014      4017      4018      4020      4015      4014      4017      4018
      4016      4014      4017      4018      4017      4018      4020      4021
      4017      4018      4020      4022      4017      4018      4020      4070
      4018      4020      4070      4071      4018      4020      4070      4072
      4018      4020      4070      4073      4019      4018      4020      4021
      4019      4018      4020      4022      4019      4018      4020      4070
      4020      4070      4073      4074      4020      4070      4073      4075
      4020      4070      4073      4076      4021      4020      4070      4071
      4021      4020      4070      4072      4021      4020      4070      4073
      4022      4020      4070      4071      4022      4020      4070      4072
      4022      4020      4070      4073      4023      4026      4029      4030
      4023      4026      4029      4031      4023      4026      4029      4032
      4024      4023      4026      4027      4024      4023      4026      4028
      4024      4023      4026      4029      4025      4023      4026      4027
      4025      4023      4026      4028      4025      4023      4026      4029
      4026      4029      4032      4033      4026      4029      4032      4034
      4026      4029      4032      4035      4027      4026      4029      4030
      4027      4026      4029      4031      4027      4026      4029      4032
      4028      4026      4029      4030      4028      4026      4029      4031
      4028      4026      4029      4032      4029      4032      4035      4036
      4029      4032      4035      4037      4029      4032      4035      4038
      4030      4029      4032      4033      4030      4029      4032      4034
      4030      4029      4032      4035      4031      4029      4032      4033
      4031      4029      4032      4034      4031      4029      4032      4035
      4032      4035      4038      4039      4032      4035      4038      4040
      4032      4035      4038      4041      4033      4032      4035      4036
      4033      4032      4035      4037      4033      4032      4035      4038
      4034      4032      4035      4036      4034      4032      4035      4037
      4034      4032      4035      4038      4035      4038      4041      4042
      4035      4038      4041      4043      4036      4035      4038      4039
      4036      4035      4038      4040      4036      4035      4038      4041
      4037      4035      4038      4039      4037      4035      4038      4040
      4037      4035      4038      4041      4038      4041      4043      4044
      4038      4041      4043      4045      4039      4038      4041      4042
      4039      4038      4041      4043      4040      4038      4041      4042
      4040      4038      4041      4043      4041      4043      4045      4046
      4041      4043      4045      4047      4041      4043      4045      4048
      4042      4041      4043      4044      4042      4041      4043      4045
      4043      4045      4048      4049      4043      4045      4048      4050
      4043      4045      4048      4051      4044      4043      4045      4046
      4044      4043      4045      4047      4044      4043      4045      4048
      4045      4048      4051      4052      4045      4048      4051      4053
      4045      4048      4051      4054      4046      4045      4048      4049
      4046      4045      4048      4050      4046      4045      4048      4051
      4047      4045      4048      4049      4047      4045      4048      4050
      4047      4045      4048      4051      4048      4051      4054      4055
      4048      4051      4054      4056      4048      4051      4054      4057
      4049      4048      4051      4052      4049      4048      4051      4053
      4049      4048      4051      4054      4050      4048      4051      4052
      4050      4048      4051      4053      4050      4048      4051      4054
      4051      4054      4057      4058      4051      4054      4057      4059
      4051      4054      4057      4060      4052      4051      4054      4055
      4052      4051      4054      4056      4052      4051      4054      4057
      4053      4051      4054      4055      4053      4051      4054      4056
      4053      4051      4054      4057      4054      4057      4060      4061
      4054      4057      4060      4062      4054      4057      4060      4063
      4055      4054      4057      4058      4055      4054      4057      4059
      4055      4054      4057      4060      4056      4054      4057      4058
      4056      4054      4057      4059      4056      4054      4057      4060
      4057      4060      4063      4064      4057      4060      4063      4065
      4057      4060      4063      4066      4058      4057      4060      4061
      4058      4057      4060      4062      4058      4057      4060      4063
      4059      4057      4060      4061      4059      4057      4060      4062
      4059      4057      4060      4063      4060      4063      4066      4067
      4060      4063      4066      4068      4060      4063      4066      4069
      4061      4060      4063      4064      4061      4060      4063      4065
      4061      4060      4063      4066      4062      4060      4063      4064
      4062      4060      4063      4065      4062      4060      4063      4066
      4064      4063      4066      4067      4064      4063      4066      4068
      4064      4063      4066      4069      4065      4063      4066      4067
      4065      4063      4066      4068      4065      4063      4066      4069
      4070      4073      4076      4077      4070      4073      4076      4078
      4070      4073      4076      4079      4071      4070      4073      4074
      4071      4070      4073      4075      4071      4070      4073      4076
      4072      4070      4073      4074      4072      4070      4073      4075
      4072      4070      4073      4076      4073      4076      4079      4080
      4073      4076      4079      4081      4073      4076      4079      4082
      4074      4073      4076      4077      4074      4073      4076      4078
      4074      4073      4076      4079      4075      4073      4076      4077
      4075      4073      4076      4078      4075      4073      4076      4079
      4076      4079      4082      4083      4076      4079      4082      4084
      4076      4079      4082      4085      4077      4076      4079      4080
      4077      4076      4079      4081      4077      4076      4079      4082
      4078      4076      4079      4080      4078      4076      4079      4081
      4078      4076      4079      4082      4079      4082      4085      4086
      4079      4082      4085      4087      4079      4082      4085      4088
      4080      4079      4082      4083      4080      4079      4082      4084
      4080      4079      4082      4085      4081      4079      4082      4083
      4081      4079      4082      4084      4081      4079      4082      4085
      4082      4085      4088      4089      4082      4085      4088      4090
      4082      4085      4088      4091      4083      4082      4085      4086
      4083      4082      4085      4087      4083      4082      4085      4088
      4084      4082      4085      4086      4084      4082      4085      4087
      4084      4082      4085      4088      4085      4088      4091      4092
      4085      4088      4091      4093      4085      4088      4091      4094
      4086      4085      4088      4089      4086      4085      4088      4090
      4086      4085      4088      4091      4087      4085      4088      4089
      4087      4085      4088      4090      4087      4085      4088      4091
      4088      4091      4094      4095      4088      4091      4094      4096
      4088      4091      4094      4097      4089      4088      4091      4092
      4089      4088      4091      4093      4089      4088      4091      4094
      4090      4088      4091      4092      4090      4088      4091      4093
      4090      4088      4091      4094      4091      4094      4097      4098
      4091      4094      4097      4099      4091      4094      4097      4100
      4092      4091      4094      4095      4092      4091      4094      4096
      4092      4091      4094      4097      4093      4091      4094      4095
      4093      4091      4094      4096      4093      4091      4094      4097
      4094      4097      4100      4101      4094      4097      4100      4102
      4094      4097      4100      4103      4095      4094      4097      4098
      4095      4094      4097      4099      4095      4094      4097      4100
      4096      4094      4097      4098      4096      4094      4097      4099
      4096      4094      4097      4100      4097      4100      4103      4104
      4097      4100      4103      4105      4097      4100      4103      4106
      4098      4097      4100      4101      4098      4097      4100      4102
      4098      4097      4100      4103      4099      4097      4100      4101
      4099      4097      4100      4102      4099      4097      4100      4103
      4100      4103      4106      4107      4100      4103      4106      4108
      4100      4103      4106      4109      4101      4100      4103      4104
      4101      4100      4103      4105      4101      4100      4103      4106
      4102      4100      4103      4104      4102      4100      4103      4105
      4102      4100      4103      4106      4103      4106      4109      4110
      4103      4106      4109      4111      4103      4106      4109      4112
      4104      4103      4106      4107      4104      4103      4106      4108
      4104      4103      4106      4109      4105      4103      4106      4107
      4105      4103      4106      4108      4105      4103      4106      4109
      4107      4106      4109      4110      4107      4106      4109      4111
      4107      4106      4109      4112      4108      4106      4109      4110
      4108      4106      4109      4111      4108      4106      4109      4112
      4113      4114      4129      4130      4113      4114      4129      4131
      4113      4114      4129      4135      4114      4113      4117      4118
      4114      4113      4117      4119      4114      4113      4117      4120
      4114      4113      4121      4122      4114      4113      4121      4123
      4114      4113      4121      4124      4114      4113      4125      4126
      4114      4113      4125      4127      4114      4113      4125      4128
      4114      4129      4135      4132      4115      4114      4113      4117
      4115      4114      4113      4121      4115      4114      4113      4125
      4115      4114      4129      4130      4115      4114      4129      4131
      4115      4114      4129      4135      4116      4114      4113      4117
      4116      4114      4113      4121      4116      4114      4113      4125
      4116      4114      4129      4130      4116      4114      4129      4131
      4116      4114      4129      4135      4117      4113      4114      4129
      4117      4113      4121      4122      4117      4113      4121      4123
      4117      4113      4121      4124      4117      4113      4125      4126
      4117      4113      4125      4127      4117      4113      4125      4128
      4118      4117      4113      4121      4118      4117      4113      4125
      4119      4117      4113      4121      4119      4117      4113      4125
      4120      4117      4113      4121      4120      4117      4113      4125
      4121      4113      4114      4129      4121      4113      4125      4126
      4121      4113      4125      4127      4121      4113      4125      4128
      4122      4121      4113      4125      4123      4121      4113      4125
      4124      4121      4113      4125      4125      4113      4114      4129
      4129      4135      4132      4133      4129      4135      4132      4134
      4129      4135      4132      4136      4130      4129      4135      4132
      4131      4129      4135      4132      4132      4136      4137      4138
      4132      4136      4137      4139      4132      4136      4137      4140
      4133      4132      4136      4137      4134      4132      4136      4137
      4135      4132      4136      4137      4136      4137      4140      4141
      4136      4137      4140      4142      4136      4137      4140      4148
      4137      4140      4142      4143      4137      4140      4148      4149
      4137      4140      4148      4150      4137      4140      4148      4151
      4138      4137      4140      4141      4138      4137      4140      4142
      4138      4137      4140      4148      4139      4137      4140      4141
      4139      4137      4140      4142      4139      4137      4140      4148
      4140      4142      4143      4144      4140      4142      4143      4145
      4140      4148      4151      4152      4141      4140      4142      4143
      4141      4140      4148      4149      4141      4140      4148      4150
      4141      4140      4148      4151      4142      4140      4148      4149
      4142      4140      4148      4150      4142      4140      4148      4151
      4142      4143      4145      4146      4142      4143      4145      4147
      4142      4143      4145      4157      4143      4142      4140      4148
      4143      4145      4157      4158      4143      4145      4157      4159
      4143      4145      4157      4160      4144      4143      4145      4146
      4144      4143      4145      4147      4144      4143      4145      4157
      4145      4157      4160      4161      4145      4157      4160      4162
      4145      4157      4160      4163      4146      4145      4157      4158
      4146      4145      4157      4159      4146      4145      4157      4160
      4147      4145      4157      4158      4147      4145      4157      4159
      4147      4145      4157      4160      4148      4151      4152      4153
      4148      4151      4152      4154      4149      4148      4151      4152
      4150      4148      4151      4152      4151      4152      4154      4155
      4151      4152      4154      4156      4151      4152      4154      4204
      4152      4154      4204      4205      4152      4154      4204      4206
      4152      4154      4204      4207      4153      4152      4154      4155
      4153      4152      4154      4156      4153      4152      4154      4204
      4154      4204      4207      4208      4154      4204      4207      4209
      4154      4204      4207      4210      4155      4154      4204      4205
      4155      4154      4204      4206      4155      4154      4204      4207
      4156      4154      4204      4205      4156      4154      4204      4206
      4156      4154      4204      4207      4157      4160      4163      4164
      4157      4160      4163      4165      4157      4160      4163      4166
      4158      4157      4160      4161      4158      4157      4160      4162
      4158      4157      4160      4163      4159      4157      4160      4161
      4159      4157      4160      4162      4159      4157      4160      4163
      4160      4163      4166      4167      4160      4163      4166      4168
      4160      4163      4166      4169      4161      4160      4163      4164
      4161      4160      4163      4165      4161      4160      4163      4166
      4162      4160      4163      4164      4162      4160      4163      4165
      4162      4160      4163      4166      4163      4166      4169      4170
      4163      4166      4169      4171      4163      4166      4169      4172
      4164      4163      4166      4167      4164      4163      4166      4168
      4164      4163      4166      4169      4165      4163      4166      4167
      4165      4163      4166      4168      4165      4163      4166      4169
      4166      4169      4172      4173      4166      4169      4172      4174
      4166      4169      4172      4175      4167      4166      4169      4170
      4167      4166      4169      4171      4167      4166      4169      4172
      4168      4166      4169      4170      4168      4166      4169      4171
      4168      4166      4169      4172      4169      4172      4175      4176
      4169      4172      4175      4177      4170      4169      4172      4173
      4170      4169      4172      4174      4170      4169      4172      4175
      4171      4169      4172      4173      4171      4169      4172      4174
      4171      4169      4172      4175      4172      4175      4177      4178
      4172      4175      4177      4179      4173      4172      4175      4176
      4173      4172      4175      4177      4174      4172      4175      4176
      4174      4172      4175      4177      4175      4177      4179      4180
      4175      4177      4179      4181      4175      4177      4179      4182
      4176      4175      4177      4178      4176      4175      4177      4179
      4177      4179      4182      4183      4177      4179      4182      4184
      4177      4179      4182      4185      4178      4177      4179      4180
      4178      4177      4179      4181      4178      4177      4179      4182
      4179      4182      4185      4186      4179      4182      4185      4187
      4179      4182      4185      4188      4180      4179      4182      4183
      4180      4179      4182      4184      4180      4179      4182      4185
      4181      4179      4182      4183      4181      4179      4182      4184
      4181      4179      4182      4185      4182      4185      4188      4189
      4182      4185      4188      4190      4182      4185      4188      4191
      4183      4182      4185      4186      4183      4182      4185      4187
      4183      4182      4185      4188      4184      4182      4185      4186
      4184      4182      4185      4187      4184      4182      4185      4188
      4185      4188      4191      4192      4185      4188      4191      4193
      4185      4188      4191      4194      4186      4185      4188      4189
      4186      4185      4188      4190      4186      4185      4188      4191
      4187      4185      4188      4189      4187      4185      4188      4190
      4187      4185      4188      4191      4188      4191      4194      4195
      4188      4191      4194      4196      4188      4191      4194      4197
      4189      4188      4191      4192      4189      4188      4191      4193
      4189      4188      4191      4194      4190      4188      4191      4192
      4190      4188      4191      4193      4190      4188      4191      4194
      4191      4194      4197      4198      4191      4194      4197      4199
      4191      4194      4197      4200      4192      4191      4194      4195
      4192      4191      4194      4196      4192      4191      4194      4197
      4193      4191      4194      4195      4193      4191      4194      4196
      4193      4191      4194      4197      4194      4197      4200      4201
      4194      4197      4200      4202      4194      4197      4200      4203
      4195      4194      4197      4198      4195      4194      4197      4199
      4195      4194      4197      4200      4196      4194      4197      4198
      4196      4194      4197      4199      4196      4194      4197      4200
      4198      4197      4200      4201      4198      4197      4200      4202
      4198      4197      4200      4203      4199      4197      4200      4201
      4199      4197      4200      4202      4199      4197      4200      4203
      4204      4207      4210      4211      4204      4207      4210      4212
      4204      4207      4210      4213      4205      4204      4207      4208
      4205      4204      4207      4209      4205      4204      4207      4210
      4206      4204      4207      4208      4206      4204      4207      4209
      4206      4204      4207      4210      4207      4210      4213      4214
      4207      4210      4213      4215      4207      4210      4213      4216
      4208      4207      4210      4211      4208      4207      4210      4212
      4208      4207      4210      4213      4209      4207      4210      4211
      4209      4207      4210      4212      4209      4207      4210      4213
      4210      4213      4216      4217      4210      4213      4216      4218
      4210      4213      4216      4219      4211      4210      4213      4214
      4211      4210      4213      4215      4211      4210      4213      4216
      4212      4210      4213      4214      4212      4210      4213      4215
      4212      4210      4213      4216      4213      4216      4219      4220
      4213      4216      4219      4221      4213      4216      4219      4222
      4214      4213      4216      4217      4214      4213      4216      4218
      4214      4213      4216      4219      4215      4213      4216      4217
      4215      4213      4216      4218      4215      4213      4216      4219
      4216      4219      4222      4223      4216      4219      4222      4224
      4216      4219      4222      4225      4217      4216      4219      4220
      4217      4216      4219      4221      4217      4216      4219      4222
      4218      4216      4219      4220      4218      4216      4219      4221
      4218      4216      4219      4222      4219      4222      4225      4226
      4219      4222      4225      4227      4219      4222      4225      4228
      4220      4219      4222      4223      4220      4219      4222      4224
      4220      4219      4222      4225      4221      4219      4222      4223
      4221      4219      4222      4224      4221      4219      4222      4225
      4222      4225      4228      4229      4222      4225      4228      4230
      4222      4225      4228      4231      4223      4222      4225      4226
      4223      4222      4225      4227      4223      4222      4225      4228
      4224      4222      4225      4226      4224      4222      4225      4227
      4224      4222      4225      4228      4225      4228      4231      4232
      4225      4228      4231      4233      4225      4228      4231      4234
      4226      4225      4228      4229      4226      4225      4228      4230
      4226      4225      4228      4231      4227      4225      4228      4229
      4227      4225      4228      4230      4227      4225      4228      4231
      4228      4231      4234      4235      4228      4231      4234      4236
      4228      4231      4234      4237      4229      4228      4231      4232
      4229      4228      4231      4233      4229      4228      4231      4234
      4230      4228      4231      4232      4230      4228      4231      4233
      4230      4228      4231      4234      4231      4234      4237      4238
      4231      4234      4237      4239      4231      4234      4237      4240
      4232      4231      4234      4235      4232      4231      4234      4236
      4232      4231      4234      4237      4233      4231      4234      4235
      4233      4231      4234      4236      4233      4231      4234      4237
      4234      4237      4240      4241      4234      4237      4240      4242
      4234      4237      4240      4243      4235      4234      4237      4238
      4235      4234      4237      4239      4235      4234      4237      4240
      4236      4234      4237      4238      4236      4234      4237      4239
      4236      4234      4237      4240      4237      4240      4243      4244
      4237      4240      4243      4245      4237      4240      4243      4246
      4238      4237      4240      4241      4238      4237      4240      4242
      4238      4237      4240      4243      4239      4237      4240      4241
      4239      4237      4240      4242      4239      4237      4240      4243
      4241      4240      4243      4244      4241      4240      4243      4245
      4241      4240      4243      4246      4242      4240      4243      4244
      4242      4240      4243      4245      4242      4240      4243      4246
      4247      4248      4263      4264      4247      4248      4263      4265
      4247      4248      4263      4269      4248      4247      4251      4252
      4248      4247      4251      4253      4248      4247      4251      4254
      4248      4247      4255      4256      4248      4247      4255      4257
      4248      4247      4255      4258      4248      4247      4259      4260
      4248      4247      4259      4261      4248      4247      4259      4262
      4248      4263      4269      4266      4249      4248      4247      4251
      4249      4248      4247      4255      4249      4248      4247      4259
      4249      4248      4263      4264      4249      4248      4263      4265
      4249      4248      4263      4269      4250      4248      4247      4251
      4250      4248      4247      4255      4250      4248      4247      4259
      4250      4248      4263      4264      4250      4248      4263      4265
      4250      4248      4263      4269      4251      4247      4248      4263
      4251      4247      4255      4256      4251      4247      4255      4257
      4251      4247      4255      4258      4251      4247      4259      4260
      4251      4247      4259      4261      4251      4247      4259      4262
      4252      4251      4247      4255      4252      4251      4247      4259
      4253      4251      4247      4255      4253      4251      4247      4259
      4254      4251      4247      4255      4254      4251      4247      4259
      4255      4247      4248      4263      4255      4247      4259      4260
      4255      4247      4259      4261      4255      4247      4259      4262
      4256      4255      4247      4259      4257      4255      4247      4259
      4258      4255      4247      4259      4259      4247      4248      4263
      4263      4269      4266      4267      4263      4269      4266      4268
      4263      4269      4266      4270      4264      4263      4269      4266
      4265      4263      4269      4266      4266      4270      4271      4272
      4266      4270      4271      4273      4266      4270      4271      4274
      4267      4266      4270      4271      4268      4266      4270      4271
      4269      4266      4270      4271      4270      4271      4274      4275
      4270      4271      4274      4276      4270      4271      4274      4282
      4271      4274      4276      4277      4271      4274      4282      4283
      4271      4274      4282      4284      4271      4274      4282      4285
      4272      4271      4274      4275      4272      4271      4274      4276
      4272      4271      4274      4282      4273      4271      4274      4275
      4273      4271      4274      4276      4273      4271      4274      4282
      4274      4276      4277      4278      4274      4276      4277      4279
      4274      4282      4285      4286      4275      4274      4276      4277
      4275      4274      4282      4283      4275      4274      4282      4284
      4275      4274      4282      4285      4276      4274      4282      4283
      4276      4274      4282      4284      4276      4274      4282      4285
      4276      4277      4279      4280      4276      4277      4279      4281
      4276      4277      4279      4291      4277      4276      4274      4282
      4277      4279      4291      4292      4277      4279      4291      4293
      4277      4279      4291      4294      4278      4277      4279      4280
      4278      4277      4279      4281      4278      4277      4279      4291
      4279      4291      4294      4295      4279      4291      4294      4296
      4279      4291      4294      4297      4280      4279      4291      4292
      4280      4279      4291      4293      4280      4279      4291      4294
      4281      4279      4291      4292      4281      4279      4291      4293
      4281      4279      4291      4294      4282      4285      4286      4287
      4282      4285      4286      4288      4283      4282      4285      4286
      4284      4282      4285      4286      4285      4286      4288      4289
      4285      4286      4288      4290      4285      4286      4288      4338
      4286      4288      4338      4339      4286      4288      4338      4340
      4286      4288      4338      4341      4287      4286      4288      4289
      4287      4286      4288      4290      4287      4286      4288      4338
      4288      4338      4341      4342      4288      4338      4341      4343
      4288      4338      4341      4344      4289      4288      4338      4339
      4289      4288      4338      4340      4289      4288      4338      4341
      4290      4288      4338      4339      4290      4288      4338      4340
      4290      4288      4338      4341      4291      4294      4297      4298
      4291      4294      4297      4299      4291      4294      4297      4300
      4292      4291      4294      4295      4292      4291      4294      4296
      4292      4291      4294      4297      4293      4291      4294      4295
      4293      4291      4294      4296      4293      4291      4294      4297
      4294      4297      4300      4301      4294      4297      4300      4302
      4294      4297      4300      4303      4295      4294      4297      4298
      4295      4294      4297      4299      4295      4294      4297      4300
      4296      4294      4297      4298      4296      4294      4297      4299
      4296      4294      4297      4300      4297      4300      4303      4304
      4297      4300      4303      4305      4297      4300      4303      4306
      4298      4297      4300      4301      4298      4297      4300      4302
      4298      4297      4300      4303      4299      4297      4300      4301
      4299      4297      4300      4302      4299      4297      4300      4303
      4300      4303      4306      4307      4300      4303      4306      4308
      4300      4303      4306      4309      4301      4300      4303      4304
      4301      4300      4303      4305      4301      4300      4303      4306
      4302      4300      4303      4304      4302      4300      4303      4305
      4302      4300      4303      4306      4303      4306      4309      4310
      4303      4306      4309      4311      4304      4303      4306      4307
      4304      4303      4306      4308      4304      4303      4306      4309
      4305      4303      4306      4307      4305      4303      4306      4308
      4305      4303      4306      4309      4306      4309      4311      4312
      4306      4309      4311      4313      4307      4306      4309      4310
      4307      4306      4309      4311      4308      4306      4309      4310
      4308      4306      4309      4311      4309      4311      4313      4314
      4309      4311      4313      4315      4309      4311      4313      4316
      4310      4309      4311      4312      4310      4309      4311      4313
      4311      4313      4316      4317      4311      4313      4316      4318
      4311      4313      4316      4319      4312      4311      4313      4314
      4312      4311      4313      4315      4312      4311      4313      4316
      4313      4316      4319      4320      4313      4316      4319      4321
      4313      4316      4319      4322      4314      4313      4316      4317
      4314      4313      4316      4318      4314      4313      4316      4319
      4315      4313      4316      4317      4315      4313      4316      4318
      4315      4313      4316      4319      4316      4319      4322      4323
      4316      4319      4322      4324      4316      4319      4322      4325
      4317      4316      4319      4320      4317      4316      4319      4321
      4317      4316      4319      4322      4318      4316      4319      4320
      4318      4316      4319      4321      4318      4316      4319      4322
      4319      4322      4325      4326      4319      4322      4325      4327
      4319      4322      4325      4328      4320      4319      4322      4323
      4320      4319      4322      4324      4320      4319      4322      4325
      4321      4319      4322      4323      4321      4319      4322      4324
      4321      4319      4322      4325      4322      4325      4328      4329
      4322      4325      4328      4330      4322      4325      4328      4331
      4323      4322      4325      4326      4323      4322      4325      4327
      4323      4322      4325      4328      4324      4322      4325      4326
      4324      4322      4325      4327      4324      4322      4325      4328
      4325      4328      4331      4332      4325      4328      4331      4333
      4325      4328      4331      4334      4326      4325      4328      4329
      4326      4325      4328      4330      4326      4325      4328      4331
      4327      4325      4328      4329      4327      4325      4328      4330
      4327      4325      4328      4331      4328      4331      4334      4335
      4328      4331      4334      4336      4328      4331      4334      4337
      4329      4328      4331      4332      4329      4328      4331      4333
      4329      4328      4331      4334      4330      4328      4331      4332
      4330      4328      4331      4333      4330      4328      4331      4334
      4332      4331      4334      4335      4332      4331      4334      4336
      4332      4331      4334      4337      4333      4331      4334      4335
      4333      4331      4334      4336      4333      4331      4334      4337
      4338      4341      4344      4345      4338      4341      4344      4346
      4338      4341      4344      4347      4339      4338      4341      4342
      4339      4338      4341      4343      4339      4338      4341      4344
      4340      4338      4341      4342      4340      4338      4341      4343
      4340      4338      4341      4344      4341      4344      4347      4348
      4341      4344      4347      4349      4341      4344      4347      4350
      4342      4341      4344      4345      4342      4341      4344      4346
      4342      4341      4344      4347      4343      4341      4344      4345
      4343      4341      4344      4346      4343      4341      4344      4347
      4344      4347      4350      4351      4344      4347      4350      4352
      4344      4347      4350      4353      4345      4344      4347      4348
      4345      4344      4347      4349      4345      4344      4347      4350
      4346      4344      4347      4348      4346      4344      4347      4349
      4346      4344      4347      4350      4347      4350      4353      4354
      4347      4350      4353      4355      4347      4350      4353      4356
      4348      4347      4350      4351      4348      4347      4350      4352
      4348      4347      4350      4353      4349      4347      4350      4351
      4349      4347      4350      4352      4349      4347      4350      4353
      4350      4353      4356      4357      4350      4353      4356      4358
      4350      4353      4356      4359      4351      4350      4353      4354
      4351      4350      4353      4355      4351      4350      4353      4356
      4352      4350      4353      4354      4352      4350      4353      4355
      4352      4350      4353      4356      4353      4356      4359      4360
      4353      4356      4359      4361      4353      4356      4359      4362
      4354      4353      4356      4357      4354      4353      4356      4358
      4354      4353      4356      4359      4355      4353      4356      4357
      4355      4353      4356      4358      4355      4353      4356      4359
      4356      4359      4362      4363      4356      4359      4362      4364
      4356      4359      4362      4365      4357      4356      4359      4360
      4357      4356      4359      4361      4357      4356      4359      4362
      4358      4356      4359      4360      4358      4356      4359      4361
      4358      4356      4359      4362      4359      4362      4365      4366
      4359      4362      4365      4367      4359      4362      4365      4368
      4360      4359      4362      4363      4360      4359      4362      4364
      4360      4359      4362      4365      4361      4359      4362      4363
      4361      4359      4362      4364      4361      4359      4362      4365
      4362      4365      4368      4369      4362      4365      4368      4370
      4362      4365      4368      4371      4363      4362      4365      4366
      4363      4362      4365      4367      4363      4362      4365      4368
      4364      4362      4365      4366      4364      4362      4365      4367
      4364      4362      4365      4368      4365      4368      4371      4372
      4365      4368      4371      4373      4365      4368      4371      4374
      4366      4365      4368      4369      4366      4365      4368      4370
      4366      4365      4368      4371      4367      4365      4368      4369
      4367      4365      4368      4370      4367      4365      4368      4371
      4368      4371      4374      4375      4368      4371      4374      4376
      4368      4371      4374      4377      4369      4368      4371      4372
      4369      4368      4371      4373      4369      4368      4371      4374
      4370      4368      4371      4372      4370      4368      4371      4373
      4370      4368      4371      4374      4371      4374      4377      4378
      4371      4374      4377      4379      4371      4374      4377      4380
      4372      4371      4374      4375      4372      4371      4374      4376
      4372      4371      4374      4377      4373      4371      4374      4375
      4373      4371      4374      4376      4373      4371      4374      4377
      4375      4374      4377      4378      4375      4374      4377      4379
      4375      4374      4377      4380      4376      4374      4377      4378
      4376      4374      4377      4379      4376      4374      4377      4380
      4381      4382      4397      4398      4381      4382      4397      4399
      4381      4382      4397      4403      4382      4381      4385      4386
      4382      4381      4385      4387      4382      4381      4385      4388
      4382      4381      4389      4390      4382      4381      4389      4391
      4382      4381      4389      4392      4382      4381      4393      4394
      4382      4381      4393      4395      4382      4381      4393      4396
      4382      4397      4403      4400      4383      4382      4381      4385
      4383      4382      4381      4389      4383      4382      4381      4393
      4383      4382      4397      4398      4383      4382      4397      4399
      4383      4382      4397      4403      4384      4382      4381      4385
      4384      4382      4381      4389      4384      4382      4381      4393
      4384      4382      4397      4398      4384      4382      4397      4399
      4384      4382      4397      4403      4385      4381      4382      4397
      4385      4381      4389      4390      4385      4381      4389      4391
      4385      4381      4389      4392      4385      4381      4393      4394
      4385      4381      4393      4395      4385      4381      4393      4396
      4386      4385      4381      4389      4386      4385      4381      4393
      4387      4385      4381      4389      4387      4385      4381      4393
      4388      4385      4381      4389      4388      4385      4381      4393
      4389      4381      4382      4397      4389      4381      4393      4394
      4389      4381      4393      4395      4389      4381      4393      4396
      4390      4389      4381      4393      4391      4389      4381      4393
      4392      4389      4381      4393      4393      4381      4382      4397
      4397      4403      4400      4401      4397      4403      4400      4402
      4397      4403      4400      4404      4398      4397      4403      4400
      4399      4397      4403      4400      4400      4404      4405      4406
      4400      4404      4405      4407      4400      4404      4405      4408
      4401      4400      4404      4405      4402      4400      4404      4405
      4403      4400      4404      4405      4404      4405      4408      4409
      4404      4405      4408      4410      4404      4405      4408      4416
      4405      4408      4410      4411      4405      4408      4416      4417
      4405      4408      4416      4418      4405      4408      4416      4419
      4406      4405      4408      4409      4406      4405      4408      4410
      4406      4405      4408      4416      4407      4405      4408      4409
      4407      4405      4408      4410      4407      4405      4408      4416
      4408      4410      4411      4412      4408      4410      4411      4413
      4408      4416      4419      4420      4409      4408      4410      4411
      4409      4408      4416      4417      4409      4408      4416      4418
      4409      4408      4416      4419      4410      4408      4416      4417
      4410      4408      4416      4418      4410      4408      4416      4419
      4410      4411      4413      4414      4410      4411      4413      4415
      4410      4411      4413      4425      4411      4410      4408      4416
      4411      4413      4425      4426      4411      4413      4425      4427
      4411      4413      4425      4428      4412      4411      4413      4414
      4412      4411      4413      4415      4412      4411      4413      4425
      4413      4425      4428      4429      4413      4425      4428      4430
      4413      4425      4428      4431      4414      4413      4425      4426
      4414      4413      4425      4427      4414      4413      4425      4428
      4415      4413      4425      4426      4415      4413      4425      4427
      4415      4413      4425      4428      4416      4419      4420      4421
      4416      4419      4420      4422      4417      4416      4419      4420
      4418      4416      4419      4420      4419      4420      4422      4423
      4419      4420      4422      4424      4419      4420      4422      4472
      4420      4422      4472      4473      4420      4422      4472      4474
      4420      4422      4472      4475      4421      4420      4422      4423
      4421      4420      4422      4424      4421      4420      4422      4472
      4422      4472      4475      4476      4422      4472      4475      4477
      4422      4472      4475      4478      4423      4422      4472      4473
      4423      4422      4472      4474      4423      4422      4472      4475
      4424      4422      4472      4473      4424      4422      4472      4474
      4424      4422      4472      4475      4425      4428      4431      4432
      4425      4428      4431      4433      4425      4428      4431      4434
      4426      4425      4428      4429      4426      4425      4428      4430
      4426      4425      4428      4431      4427      4425      4428      4429
      4427      4425      4428      4430      4427      4425      4428      4431
      4428      4431      4434      4435      4428      4431      4434      4436
      4428      4431      4434      4437      4429      4428      4431      4432
      4429      4428      4431      4433      4429      4428      4431      4434
      4430      4428      4431      4432      4430      4428      4431      4433
      4430      4428      4431      4434      4431      4434      4437      4438
      4431      4434      4437      4439      4431      4434      4437      4440
      4432      4431      4434      4435      4432      4431      4434      4436
      4432      4431      4434      4437      4433      4431      4434      4435
      4433      4431      4434      4436      4433      4431      4434      4437
      4434      4437      4440      4441      4434      4437      4440      4442
      4434      4437      4440      4443      4435      4434      4437      4438
      4435      4434      4437      4439      4435      4434      4437      4440
      4436      4434      4437      4438      4436      4434      4437      4439
      4436      4434      4437      4440      4437      4440      4443      4444
      4437      4440      4443      4445      4438      4437      4440      4441
      4438      4437      4440      4442      4438      4437      4440      4443
      4439      4437      4440      4441      4439      4437      4440      4442
      4439      4437      4440      4443      4440      4443      4445      4446
      4440      4443      4445      4447      4441      4440      4443      4444
      4441      4440      4443      4445      4442      4440      4443      4444
      4442      4440      4443      4445      4443      4445      4447      4448
      4443      4445      4447      4449      4443      4445      4447      4450
      4444      4443      4445      4446      4444      4443      4445      4447
      4445      4447      4450      4451      4445      4447      4450      4452
      4445      4447      4450      4453      4446      4445      4447      4448
      4446      4445      4447      4449      4446      4445      4447      4450
      4447      4450      4453      4454      4447      4450      4453      4455
      4447      4450      4453      4456      4448      4447      4450      4451
      4448      4447      4450      4452      4448      4447      4450      4453
      4449      4447      4450      4451      4449      4447      4450      4452
      4449      4447      4450      4453      4450      4453      4456      4457
      4450      4453      4456      4458      4450      4453      4456      4459
      4451      4450      4453      4454      4451      4450      4453      4455
      4451      4450      4453      4456      4452      4450      4453      4454
      4452      4450      4453      4455      4452      4450      4453      4456
      4453      4456      4459      4460      4453      4456      4459      4461
      4453      4456      4459      4462      4454      4453      4456      4457
      4454      4453      4456      4458      4454      4453      4456      4459
      4455      4453      4456      4457      4455      4453      4456      4458
      4455      4453      4456      4459      4456      4459      4462      4463
      4456      4459      4462      4464      4456      4459      4462      4465
      4457      4456      4459      4460      4457      4456      4459      4461
      4457      4456      4459      4462      4458      4456      4459      4460
      4458      4456      4459      4461      4458      4456      4459      4462
      4459      4462      4465      4466      4459      4462      4465      4467
      4459      4462      4465      4468      4460      4459      4462      4463
      4460      4459      4462      4464      4460      4459      4462      4465
      4461      4459      4462      4463      4461      4459      4462      4464
      4461      4459      4462      4465      4462      4465      4468      4469
      4462      4465      4468      4470      4462      4465      4468      4471
      4463      4462      4465      4466      4463      4462      4465      4467
      4463      4462      4465      4468      4464      4462      4465      4466
      4464      4462      4465      4467      4464      4462      4465      4468
      4466      4465      4468      4469      4466      4465      4468      4470
      4466      4465      4468      4471      4467      4465      4468      4469
      4467      4465      4468      4470      4467      4465      4468      4471
      4472      4475      4478      4479      4472      4475      4478      4480
      4472      4475      4478      4481      4473      4472      4475      4476
      4473      4472      4475      4477      4473      4472      4475      4478
      4474      4472      4475      4476      4474      4472      4475      4477
      4474      4472      4475      4478      4475      4478      4481      4482
      4475      4478      4481      4483      4475      4478      4481      4484
      4476      4475      4478      4479      4476      4475      4478      4480
      4476      4475      4478      4481      4477      4475      4478      4479
      4477      4475      4478      4480      4477      4475      4478      4481
      4478      4481      4484      4485      4478      4481      4484      4486
      4478      4481      4484      4487      4479      4478      4481      4482
      4479      4478      4481      4483      4479      4478      4481      4484
      4480      4478      4481      4482      4480      4478      4481      4483
      4480      4478      4481      4484      4481      4484      4487      4488
      4481      4484      4487      4489      4481      4484      4487      4490
      4482      4481      4484      4485      4482      4481      4484      4486
      4482      4481      4484      4487      4483      4481      4484      4485
      4483      4481      4484      4486      4483      4481      4484      4487
      4484      4487      4490      4491      4484      4487      4490      4492
      4484      4487      4490      4493      4485      4484      4487      4488
      4485      4484      4487      4489      4485      4484      4487      4490
      4486      4484      4487      4488      4486      4484      4487      4489
      4486      4484      4487      4490      4487      4490      4493      4494
      4487      4490      4493      4495      4487      4490      4493      4496
      4488      4487      4490      4491      4488      4487      4490      4492
      4488      4487      4490      4493      4489      4487      4490      4491
      4489      4487      4490      4492      4489      4487      4490      4493
      4490      4493      4496      4497      4490      4493      4496      4498
      4490      4493      4496      4499      4491      4490      4493      4494
      4491      4490      4493      4495      4491      4490      4493      4496
      4492      4490      4493      4494      4492      4490      4493      4495
      4492      4490      4493      4496      4493      4496      4499      4500
      4493      4496      4499      4501      4493      4496      4499      4502
      4494      4493      4496      4497      4494      4493      4496      4498
      4494      4493      4496      4499      4495      4493      4496      4497
      4495      4493      4496      4498      4495      4493      4496      4499
      4496      4499      4502      4503      4496      4499      4502      4504
      4496      4499      4502      4505      4497      4496      4499      4500
      4497      4496      4499      4501      4497      4496      4499      4502
      4498      4496      4499      4500      4498      4496      4499      4501
      4498      4496      4499      4502      4499      4502      4505      4506
      4499      4502      4505      4507      4499      4502      4505      4508
      4500      4499      4502      4503      4500      4499      4502      4504
      4500      4499      4502      4505      4501      4499      4502      4503
      4501      4499      4502      4504      4501      4499      4502      4505
      4502      4505      4508      4509      4502      4505      4508      4510
      4502      4505      4508      4511      4503      4502      4505      4506
      4503      4502      4505      4507      4503      4502      4505      4508
      4504      4502      4505      4506      4504      4502      4505      4507
      4504      4502      4505      4508      4505      4508      4511      4512
      4505      4508      4511      4513      4505      4508      4511      4514
      4506      4505      4508      4509      4506      4505      4508      4510
      4506      4505      4508      4511      4507      4505      4508      4509
      4507      4505      4508      4510      4507      4505      4508      4511
      4509      4508      4511      4512      4509      4508      4511      4513
      4509      4508      4511      4514      4510      4508      4511      4512
      4510      4508      4511      4513      4510      4508      4511      4514
      4515      4516      4531      4532      4515      4516      4531      4533
      4515      4516      4531      4537      4516      4515      4519      4520
      4516      4515      4519      4521      4516      4515      4519      4522
      4516      4515      4523      4524      4516      4515      4523      4525
      4516      4515      4523      4526      4516      4515      4527      4528
      4516      4515      4527      4529      4516      4515      4527      4530
      4516      4531      4537      4534      4517      4516      4515      4519
      4517      4516      4515      4523      4517      4516      4515      4527
      4517      4516      4531      4532      4517      4516      4531      4533
      4517      4516      4531      4537      4518      4516      4515      4519
      4518      4516      4515      4523      4518      4516      4515      4527
      4518      4516      4531      4532      4518      4516      4531      4533
      4518      4516      4531      4537      4519      4515      4516      4531
      4519      4515      4523      4524      4519      4515      4523      4525
      4519      4515      4523      4526      4519      4515      4527      4528
      4519      4515      4527      4529      4519      4515      4527      4530
      4520      4519      4515      4523      4520      4519      4515      4527
      4521      4519      4515      4523      4521      4519      4515      4527
      4522      4519      4515      4523      4522      4519      4515      4527
      4523      4515      4516      4531      4523      4515      4527      4528
      4523      4515      4527      4529      4523      4515      4527      4530
      4524      4523      4515      4527      4525      4523      4515      4527
      4526      4523      4515      4527      4527      4515      4516      4531
      4531      4537      4534      4535      4531      4537      4534      4536
      4531      4537      4534      4538      4532      4531      4537      4534
      4533      4531      4537      4534      4534      4538      4539      4540
      4534      4538      4539      4541      4534      4538      4539      4542
      4535      4534      4538      4539      4536      4534      4538      4539
      4537      4534      4538      4539      4538      4539      4542      4543
      4538      4539      4542      4544      4538      4539      4542      4550
      4539      4542      4544      4545      4539      4542      4550      4551
      4539      4542      4550      4552      4539      4542      4550      4553
      4540      4539      4542      4543      4540      4539      4542      4544
      4540      4539      4542      4550      4541      4539      4542      4543
      4541      4539      4542      4544      4541      4539      4542      4550
      4542      4544      4545      4546      4542      4544      4545      4547
      4542      4550      4553      4554      4543      4542      4544      4545
      4543      4542      4550      4551      4543      4542      4550      4552
      4543      4542      4550      4553      4544      4542      4550      4551
      4544      4542      4550      4552      4544      4542      4550      4553
      4544      4545      4547      4548      4544      4545      4547      4549
      4544      4545      4547      4559      4545      4544      4542      4550
      4545      4547      4559      4560      4545      4547      4559      4561
      4545      4547      4559      4562      4546      4545      4547      4548
      4546      4545      4547      4549      4546      4545      4547      4559
      4547      4559      4562      4563      4547      4559      4562      4564
      4547      4559      4562      4565      4548      4547      4559      4560
      4548      4547      4559      4561      4548      4547      4559      4562
      4549      4547      4559      4560      4549      4547      4559      4561
      4549      4547      4559      4562      4550      4553      4554      4555
      4550      4553      4554      4556      4551      4550      4553      4554
      4552      4550      4553      4554      4553      4554      4556      4557
      4553      4554      4556      4558      4553      4554      4556      4606
      4554      4556      4606      4607      4554      4556      4606      4608
      4554      4556      4606      4609      4555      4554      4556      4557
      4555      4554      4556      4558      4555      4554      4556      4606
      4556      4606      4609      4610      4556      4606      4609      4611
      4556      4606      4609      4612      4557      4556      4606      4607
      4557      4556      4606      4608      4557      4556      4606      4609
      4558      4556      4606      4607      4558      4556      4606      4608
      4558      4556      4606      4609      4559      4562      4565      4566
      4559      4562      4565      4567      4559      4562      4565      4568
      4560      4559      4562      4563      4560      4559      4562      4564
      4560      4559      4562      4565      4561      4559      4562      4563
      4561      4559      4562      4564      4561      4559      4562      4565
      4562      4565      4568      4569      4562      4565      4568      4570
      4562      4565      4568      4571      4563      4562      4565      4566
      4563      4562      4565      4567      4563      4562      4565      4568
      4564      4562      4565      4566      4564      4562      4565      4567
      4564      4562      4565      4568      4565      4568      4571      4572
      4565      4568      4571      4573      4565      4568      4571      4574
      4566      4565      4568      4569      4566      4565      4568      4570
      4566      4565      4568      4571      4567      4565      4568      4569
      4567      4565      4568      4570      4567      4565      4568      4571
      4568      4571      4574      4575      4568      4571      4574      4576
      4568      4571      4574      4577      4569      4568      4571      4572
      4569      4568      4571      4573      4569      4568      4571      4574
      4570      4568      4571      4572      4570      4568      4571      4573
      4570      4568      4571      4574      4571      4574      4577      4578
      4571      4574      4577      4579      4572      4571      4574      4575
      4572      4571      4574      4576      4572      4571      4574      4577
      4573      4571      4574      4575      4573      4571      4574      4576
      4573      4571      4574      4577      4574      4577      4579      4580
      4574      4577      4579      4581      4575      4574      4577      4578
      4575      4574      4577      4579      4576      4574      4577      4578
      4576      4574      4577      4579      4577      4579      4581      4582
      4577      4579      4581      4583      4577      4579      4581      4584
      4578      4577      4579      4580      4578      4577      4579      4581
      4579      4581      4584      4585      4579      4581      4584      4586
      4579      4581      4584      4587      4580      4579      4581      4582
      4580      4579      4581      4583      4580      4579      4581      4584
      4581      4584      4587      4588      4581      4584      4587      4589
      4581      4584      4587      4590      4582      4581      4584      4585
      4582      4581      4584      4586      4582      4581      4584      4587
      4583      4581      4584      4585      4583      4581      4584      4586
      4583      4581      4584      4587      4584      4587      4590      4591
      4584      4587      4590      4592      4584      4587      4590      4593
      4585      4584      4587      4588      4585      4584      4587      4589
      4585      4584      4587      4590      4586      4584      4587      4588
      4586      4584      4587      4589      4586      4584      4587      4590
      4587      4590      4593      4594      4587      4590      4593      4595
      4587      4590      4593      4596      4588      4587      4590      4591
      4588      4587      4590      4592      4588      4587      4590      4593
      4589      4587      4590      4591      4589      4587      4590      4592
      4589      4587      4590      4593      4590      4593      4596      4597
      4590      4593      4596      4598      4590      4593      4596      4599
      4591      4590      4593      4594      4591      4590      4593      4595
      4591      4590      4593      4596      4592      4590      4593      4594
      4592      4590      4593      4595      4592      4590      4593      4596
      4593      4596      4599      4600      4593      4596      4599      4601
      4593      4596      4599      4602      4594      4593      4596      4597
      4594      4593      4596      4598      4594      4593      4596      4599
      4595      4593      4596      4597      4595      4593      4596      4598
      4595      4593      4596      4599      4596      4599      4602      4603
      4596      4599      4602      4604      4596      4599      4602      4605
      4597      4596      4599      4600      4597      4596      4599      4601
      4597      4596      4599      4602      4598      4596      4599      4600
      4598      4596      4599      4601      4598      4596      4599      4602
      4600      4599      4602      4603      4600      4599      4602      4604
      4600      4599      4602      4605      4601      4599      4602      4603
      4601      4599      4602      4604      4601      4599      4602      4605
      4606      4609      4612      4613      4606      4609      4612      4614
      4606      4609      4612      4615      4607      4606      4609      4610
      4607      4606      4609      4611      4607      4606      4609      4612
      4608      4606      4609      4610      4608      4606      4609      4611
      4608      4606      4609      4612      4609      4612      4615      4616
      4609      4612      4615      4617      4609      4612      4615      4618
      4610      4609      4612      4613      4610      4609      4612      4614
      4610      4609      4612      4615      4611      4609      4612      4613
      4611      4609      4612      4614      4611      4609      4612      4615
      4612      4615      4618      4619      4612      4615      4618      4620
      4612      4615      4618      4621      4613      4612      4615      4616
      4613      4612      4615      4617      4613      4612      4615      4618
      4614      4612      4615      4616      4614      4612      4615      4617
      4614      4612      4615      4618      4615      4618      4621      4622
      4615      4618      4621      4623      4615      4618      4621      4624
      4616      4615      4618      4619      4616      4615      4618      4620
      4616      4615      4618      4621      4617      4615      4618      4619
      4617      4615      4618      4620      4617      4615      4618      4621
      4618      4621      4624      4625      4618      4621      4624      4626
      4618      4621      4624      4627      4619      4618      4621      4622
      4619      4618      4621      4623      4619      4618      4621      4624
      4620      4618      4621      4622      4620      4618      4621      4623
      4620      4618      4621      4624      4621      4624      4627      4628
      4621      4624      4627      4629      4621      4624      4627      4630
      4622      4621      4624      4625      4622      4621      4624      4626
      4622      4621      4624      4627      4623      4621      4624      4625
      4623      4621      4624      4626      4623      4621      4624      4627
      4624      4627      4630      4631      4624      4627      4630      4632
      4624      4627      4630      4633      4625      4624      4627      4628
      4625      4624      4627      4629      4625      4624      4627      4630
      4626      4624      4627      4628      4626      4624      4627      4629
      4626      4624      4627      4630      4627      4630      4633      4634
      4627      4630      4633      4635      4627      4630      4633      4636
      4628      4627      4630      4631      4628      4627      4630      4632
      4628      4627      4630      4633      4629      4627      4630      4631
      4629      4627      4630      4632      4629      4627      4630      4633
      4630      4633      4636      4637      4630      4633      4636      4638
      4630      4633      4636      4639      4631      4630      4633      4634
      4631      4630      4633      4635      4631      4630      4633      4636
      4632      4630      4633      4634      4632      4630      4633      4635
      4632      4630      4633      4636      4633      4636      4639      4640
      4633      4636      4639      4641      4633      4636      4639      4642
      4634      4633      4636      4637      4634      4633      4636      4638
      4634      4633      4636      4639      4635      4633      4636      4637
      4635      4633      4636      4638      4635      4633      4636      4639
      4636      4639      4642      4643      4636      4639      4642      4644
      4636      4639      4642      4645      4637      4636      4639      4640
      4637      4636      4639      4641      4637      4636      4639      4642
      4638      4636      4639      4640      4638      4636      4639      4641
      4638      4636      4639      4642      4639      4642      4645      4646
      4639      4642      4645      4647      4639      4642      4645      4648
      4640      4639      4642      4643      4640      4639      4642      4644
      4640      4639      4642      4645      4641      4639      4642      4643
      4641      4639      4642      4644      4641      4639      4642      4645
      4643      4642      4645      4646      4643      4642      4645      4647
      4643      4642      4645      4648      4644      4642      4645      4646
      4644      4642      4645      4647      4644      4642      4645      4648
      4649      4650      4665      4666      4649      4650      4665      4667
      4649      4650      4665      4671      4650      4649      4653      4654
      4650      4649      4653      4655      4650      4649      4653      4656
      4650      4649      4657      4658      4650      4649      4657      4659
      4650      4649      4657      4660      4650      4649      4661      4662
      4650      4649      4661      4663      4650      4649      4661      4664
      4650      4665      4671      4668      4651      4650      4649      4653
      4651      4650      4649      4657      4651      4650      4649      4661
      4651      4650      4665      4666      4651      4650      4665      4667
      4651      4650      4665      4671      4652      4650      4649      4653
      4652      4650      4649      4657      4652      4650      4649      4661
      4652      4650      4665      4666      4652      4650      4665      4667
      4652      4650      4665      4671      4653      4649      4650      4665
      4653      4649      4657      4658      4653      4649      4657      4659
      4653      4649      4657      4660      4653      4649      4661      4662
      4653      4649      4661      4663      4653      4649      4661      4664
      4654      4653      4649      4657      4654      4653      4649      4661
      4655      4653      4649      4657      4655      4653      4649      4661
      4656      4653      4649      4657      4656      4653      4649      4661
      4657      4649      4650      4665      4657      4649      4661      4662
      4657      4649      4661      4663      4657      4649      4661      4664
      4658      4657      4649      4661      4659      4657      4649      4661
      4660      4657      4649      4661      4661      4649      4650      4665
      4665      4671      4668      4669      4665      4671      4668      4670
      4665      4671      4668      4672      4666      4665      4671      4668
      4667      4665      4671      4668      4668      4672      4673      4674
      4668      4672      4673      4675      4668      4672      4673      4676
      4669      4668      4672      4673      4670      4668      4672      4673
      4671      4668      4672      4673      4672      4673      4676      4677
      4672      4673      4676      4678      4672      4673      4676      4684
      4673      4676      4678      4679      4673      4676      4684      4685
      4673      4676      4684      4686      4673      4676      4684      4687
      4674      4673      4676      4677      4674      4673      4676      4678
      4674      4673      4676      4684      4675      4673      4676      4677
      4675      4673      4676      4678      4675      4673      4676      4684
      4676      4678      4679      4680      4676      4678      4679      4681
      4676      4684      4687      4688      4677      4676      4678      4679
      4677      4676      4684      4685      4677      4676      4684      4686
      4677      4676      4684      4687      4678      4676      4684      4685
      4678      4676      4684      4686      4678      4676      4684      4687
      4678      4679      4681      4682      4678      4679      4681      4683
      4678      4679      4681      4693      4679      4678      4676      4684
      4679      4681      4693      4694      4679      4681      4693      4695
      4679      4681      4693      4696      4680      4679      4681      4682
      4680      4679      4681      4683      4680      4679      4681      4693
      4681      4693      4696      4697      4681      4693      4696      4698
      4681      4693      4696      4699      4682      4681      4693      4694
      4682      4681      4693      4695      4682      4681      4693      4696
      4683      4681      4693      4694      4683      4681      4693      4695
      4683      4681      4693      4696      4684      4687      4688      4689
      4684      4687      4688      4690      4685      4684      4687      4688
      4686      4684      4687      4688      4687      4688      4690      4691
      4687      4688      4690      4692      4687      4688      4690      4740
      4688      4690      4740      4741      4688      4690      4740      4742
      4688      4690      4740      4743      4689      4688      4690      4691
      4689      4688      4690      4692      4689      4688      4690      4740
      4690      4740      4743      4744      4690      4740      4743      4745
      4690      4740      4743      4746      4691      4690      4740      4741
      4691      4690      4740      4742      4691      4690      4740      4743
      4692      4690      4740      4741      4692      4690      4740      4742
      4692      4690      4740      4743      4693      4696      4699      4700
      4693      4696      4699      4701      4693      4696      4699      4702
      4694      4693      4696      4697      4694      4693      4696      4698
      4694      4693      4696      4699      4695      4693      4696      4697
      4695      4693      4696      4698      4695      4693      4696      4699
      4696      4699      4702      4703      4696      4699      4702      4704
      4696      4699      4702      4705      4697      4696      4699      4700
      4697      4696      4699      4701      4697      4696      4699      4702
      4698      4696      4699      4700      4698      4696      4699      4701
      4698      4696      4699      4702      4699      4702      4705      4706
      4699      4702      4705      4707      4699      4702      4705      4708
      4700      4699      4702      4703      4700      4699      4702      4704
      4700      4699      4702      4705      4701      4699      4702      4703
      4701      4699      4702      4704      4701      4699      4702      4705
      4702      4705      4708      4709      4702      4705      4708      4710
      4702      4705      4708      4711      4703      4702      4705      4706
      4703      4702      4705      4707      4703      4702      4705      4708
      4704      4702      4705      4706      4704      4702      4705      4707
      4704      4702      4705      4708      4705      4708      4711      4712
      4705      4708      4711      4713      4706      4705      4708      4709
      4706      4705      4708      4710      4706      4705      4708      4711
      4707      4705      4708      4709      4707      4705      4708      4710
      4707      4705      4708      4711      4708      4711      4713      4714
      4708      4711      4713      4715      4709      4708      4711      4712
      4709      4708      4711      4713      4710      4708      4711      4712
      4710      4708      4711      4713      4711      4713      4715      4716
      4711      4713      4715      4717      4711      4713      4715      4718
      4712      4711      4713      4714      4712      4711      4713      4715
      4713      4715      4718      4719      4713      4715      4718      4720
      4713      4715      4718      4721      4714      4713      4715      4716
      4714      4713      4715      4717      4714      4713      4715      4718
      4715      4718      4721      4722      4715      4718      4721      4723
      4715      4718      4721      4724      4716      4715      4718      4719
      4716      4715      4718      4720      4716      4715      4718      4721
      4717      4715      4718      4719      4717      4715      4718      4720
      4717      4715      4718      4721      4718      4721      4724      4725
      4718      4721      4724      4726      4718      4721      4724      4727
      4719      4718      4721      4722      4719      4718      4721      4723
      4719      4718      4721      4724      4720      4718      4721      4722
      4720      4718      4721      4723      4720      4718      4721      4724
      4721      4724      4727      4728      4721      4724      4727      4729
      4721      4724      4727      4730      4722      4721      4724      4725
      4722      4721      4724      4726      4722      4721      4724      4727
      4723      4721      4724      4725      4723      4721      4724      4726
      4723      4721      4724      4727      4724      4727      4730      4731
      4724      4727      4730      4732      4724      4727      4730      4733
      4725      4724      4727      4728      4725      4724      4727      4729
      4725      4724      4727      4730      4726      4724      4727      4728
      4726      4724      4727      4729      4726      4724      4727      4730
      4727      4730      4733      4734      4727      4730      4733      4735
      4727      4730      4733      4736      4728      4727      4730      4731
      4728      4727      4730      4732      4728      4727      4730      4733
      4729      4727      4730      4731      4729      4727      4730      4732
      4729      4727      4730      4733      4730      4733      4736      4737
      4730      4733      4736      4738      4730      4733      4736      4739
      4731      4730      4733      4734      4731      4730      4733      4735
      4731      4730      4733      4736      4732      4730      4733      4734
      4732      4730      4733      4735      4732      4730      4733      4736
      4734      4733      4736      4737      4734      4733      4736      4738
      4734      4733      4736      4739      4735      4733      4736      4737
      4735      4733      4736      4738      4735      4733      4736      4739
      4740      4743      4746      4747      4740      4743      4746      4748
      4740      4743      4746      4749      4741      4740      4743      4744
      4741      4740      4743      4745      4741      4740      4743      4746
      4742      4740      4743      4744      4742      4740      4743      4745
      4742      4740      4743      4746      4743      4746      4749      4750
      4743      4746      4749      4751      4743      4746      4749      4752
      4744      4743      4746      4747      4744      4743      4746      4748
      4744      4743      4746      4749      4745      4743      4746      4747
      4745      4743      4746      4748      4745      4743      4746      4749
      4746      4749      4752      4753      4746      4749      4752      4754
      4746      4749      4752      4755      4747      4746      4749      4750
      4747      4746      4749      4751      4747      4746      4749      4752
      4748      4746      4749      4750      4748      4746      4749      4751
      4748      4746      4749      4752      4749      4752      4755      4756
      4749      4752      4755      4757      4749      4752      4755      4758
      4750      4749      4752      4753      4750      4749      4752      4754
      4750      4749      4752      4755      4751      4749      4752      4753
      4751      4749      4752      4754      4751      4749      4752      4755
      4752      4755      4758      4759      4752      4755      4758      4760
      4752      4755      4758      4761      4753      4752      4755      4756
      4753      4752      4755      4757      4753      4752      4755      4758
      4754      4752      4755      4756      4754      4752      4755      4757
      4754      4752      4755      4758      4755      4758      4761      4762
      4755      4758      4761      4763      4755      4758      4761      4764
      4756      4755      4758      4759      4756      4755      4758      4760
      4756      4755      4758      4761      4757      4755      4758      4759
      4757      4755      4758      4760      4757      4755      4758      4761
      4758      4761      4764      4765      4758      4761      4764      4766
      4758      4761      4764      4767      4759      4758      4761      4762
      4759      4758      4761      4763      4759      4758      4761      4764
      4760      4758      4761      4762      4760      4758      4761      4763
      4760      4758      4761      4764      4761      4764      4767      4768
      4761      4764      4767      4769      4761      4764      4767      4770
      4762      4761      4764      4765      4762      4761      4764      4766
      4762      4761      4764      4767      4763      4761      4764      4765
      4763      4761      4764      4766      4763      4761      4764      4767
      4764      4767      4770      4771      4764      4767      4770      4772
      4764      4767      4770      4773      4765      4764      4767      4768
      4765      4764      4767      4769      4765      4764      4767      4770
      4766      4764      4767      4768      4766      4764      4767      4769
      4766      4764      4767      4770      4767      4770      4773      4774
      4767      4770      4773      4775      4767      4770      4773      4776
      4768      4767      4770      4771      4768      4767      4770      4772
      4768      4767      4770      4773      4769      4767      4770      4771
      4769      4767      4770      4772      4769      4767      4770      4773
      4770      4773      4776      4777      4770      4773      4776      4778
      4770      4773      4776      4779      4771      4770      4773      4774
      4771      4770      4773      4775      4771      4770      4773      4776
      4772      4770      4773      4774      4772      4770      4773      4775
      4772      4770      4773      4776      4773      4776      4779      4780
      4773      4776      4779      4781      4773      4776      4779      4782
      4774      4773      4776      4777      4774      4773      4776      4778
      4774      4773      4776      4779      4775      4773      4776      4777
      4775      4773      4776      4778      4775      4773      4776      4779
      4777      4776      4779      4780      4777      4776      4779      4781
      4777      4776      4779      4782      4778      4776      4779      4780
      4778      4776      4779      4781      4778      4776      4779      4782
      4783      4787      4789      4790      4783      4787      4789      4791
      4783      4787      4792      4793      4783      4787      4792      4794
      4783      4787      4792      4798      4784      4783      4787      4788
      4784      4783      4787      4789      4784      4783      4787      4792
      4785      4783      4787      4788      4785      4783      4787      4789
      4785      4783      4787      4792      4786      4783      4787      4788
      4786      4783      4787      4789      4786      4783      4787      4792
      4787      4792      4798      4795      4788      4787      4789      4790
      4788      4787      4789      4791      4788      4787      4792      4793
      4788      4787      4792      4794      4788      4787      4792      4798
      4789      4787      4792      4793      4789      4787      4792      4794
      4789      4787      4792      4798      4790      4789      4787      4792
      4791      4789      4787      4792      4792      4798      4795      4796
      4792      4798      4795      4797      4792      4798      4795      4799
      4793      4792      4798      4795      4794      4792      4798      4795
      4795      4799      4800      4801      4795      4799      4800      4802
      4795      4799      4800      4803      4796      4795      4799      4800
      4797      4795      4799      4800      4798      4795      4799      4800
      4799      4800      4803      4804      4799      4800      4803      4805
      4799      4800      4803      4811      4800      4803      4805      4806
      4800      4803      4811      4812      4800      4803      4811      4813
      4800      4803      4811      4814      4801      4800      4803      4804
      4801      4800      4803      4805      4801      4800      4803      4811
      4802      4800      4803      4804      4802      4800      4803      4805
      4802      4800      4803      4811      4803      4805      4806      4807
      4803      4805      4806      4808      4803      4811      4814      4815
      4804      4803      4805      4806      4804      4803      4811      4812
      4804      4803      4811      4813      4804      4803      4811      4814
      4805      4803      4811      4812      4805      4803      4811      4813
      4805      4803      4811      4814      4805      4806      4808      4809
      4805      4806      4808      4810      4805      4806      4808      4820
      4806      4805      4803      4811      4806      4808      4820      4821
      4806      4808      4820      4822      4806      4808      4820      4823
      4807      4806      4808      4809      4807      4806      4808      4810
      4807      4806      4808      4820      4808      4820      4823      4824
      4808      4820      4823      4825      4808      4820      4823      4826
      4809      4808      4820      4821      4809      4808      4820      4822
      4809      4808      4820      4823      4810      4808      4820      4821
      4810      4808      4820      4822      4810      4808      4820      4823
      4811      4814      4815      4816      4811      4814      4815      4817
      4812      4811      4814      4815      4813      4811      4814      4815
      4814      4815      4817      4818      4814      4815      4817      4819
      4814      4815      4817      4867      4815      4817      4867      4868
      4815      4817      4867      4869      4815      4817      4867      4870
      4816      4815      4817      4818      4816      4815      4817      4819
      4816      4815      4817      4867      4817      4867      4870      4871
      4817      4867      4870      4872      4817      4867      4870      4873
      4818      4817      4867      4868      4818      4817      4867      4869
      4818      4817      4867      4870      4819      4817      4867      4868
      4819      4817      4867      4869      4819      4817      4867      4870
      4820      4823      4826      4827      4820      4823      4826      4828
      4820      4823      4826      4829      4821      4820      4823      4824
      4821      4820      4823      4825      4821      4820      4823      4826
      4822      4820      4823      4824      4822      4820      4823      4825
      4822      4820      4823      4826      4823      4826      4829      4830
      4823      4826      4829      4831      4823      4826      4829      4832
      4824      4823      4826      4827      4824      4823      4826      4828
      4824      4823      4826      4829      4825      4823      4826      4827
      4825      4823      4826      4828      4825      4823      4826      4829
      4826      4829      4832      4833      4826      4829      4832      4834
      4826      4829      4832      4835      4827      4826      4829      4830
      4827      4826      4829      4831      4827      4826      4829      4832
      4828      4826      4829      4830      4828      4826      4829      4831
      4828      4826      4829      4832      4829      4832      4835      4836
      4829      4832      4835      4837      4829      4832      4835      4838
      4830      4829      4832      4833      4830      4829      4832      4834
      4830      4829      4832      4835      4831      4829      4832      4833
      4831      4829      4832      4834      4831      4829      4832      4835
      4832      4835      4838      4839      4832      4835      4838      4840
      4833      4832      4835      4836      4833      4832      4835      4837
      4833      4832      4835      4838      4834      4832      4835      4836
      4834      4832      4835      4837      4834      4832      4835      4838
      4835      4838      4840      4841      4835      4838      4840      4842
      4836      4835      4838      4839      4836      4835      4838      4840
      4837      4835      4838      4839      4837      4835      4838      4840
      4838      4840      4842      4843      4838      4840      4842      4844
      4838      4840      4842      4845      4839      4838      4840      4841
      4839      4838      4840      4842      4840      4842      4845      4846
      4840      4842      4845      4847      4840      4842      4845      4848
      4841      4840      4842      4843      4841      4840      4842      4844
      4841      4840      4842      4845      4842      4845      4848      4849
      4842      4845      4848      4850      4842      4845      4848      4851
      4843      4842      4845      4846      4843      4842      4845      4847
      4843      4842      4845      4848      4844      4842      4845      4846
      4844      4842      4845      4847      4844      4842      4845      4848
      4845      4848      4851      4852      4845      4848      4851      4853
      4845      4848      4851      4854      4846      4845      4848      4849
      4846      4845      4848      4850      4846      4845      4848      4851
      4847      4845      4848      4849      4847      4845      4848      4850
      4847      4845      4848      4851      4848      4851      4854      4855
      4848      4851      4854      4856      4848      4851      4854      4857
      4849      4848      4851      4852      4849      4848      4851      4853
      4849      4848      4851      4854      4850      4848      4851      4852
      4850      4848      4851      4853      4850      4848      4851      4854
      4851      4854      4857      4858      4851      4854      4857      4859
      4851      4854      4857      4860      4852      4851      4854      4855
      4852      4851      4854      4856      4852      4851      4854      4857
      4853      4851      4854      4855      4853      4851      4854      4856
      4853      4851      4854      4857      4854      4857      4860      4861
      4854      4857      4860      4862      4854      4857      4860      4863
      4855      4854      4857      4858      4855      4854      4857      4859
      4855      4854      4857      4860      4856      4854      4857      4858
      4856      4854      4857      4859      4856      4854      4857      4860
      4857      4860      4863      4864      4857      4860      4863      4865
      4857      4860      4863      4866      4858      4857      4860      4861
      4858      4857      4860      4862      4858      4857      4860      4863
      4859      4857      4860      4861      4859      4857      4860      4862
      4859      4857      4860      4863      4861      4860      4863      4864
      4861      4860      4863      4865      4861      4860      4863      4866
      4862      4860      4863      4864      4862      4860      4863      4865
      4862      4860      4863      4866      4867      4870      4873      4874
      4867      4870      4873      4875      4867      4870      4873      4876
      4868      4867      4870      4871      4868      4867      4870      4872
      4868      4867      4870      4873      4869      4867      4870      4871
      4869      4867      4870      4872      4869      4867      4870      4873
      4870      4873      4876      4877      4870      4873      4876      4878
      4870      4873      4876      4879      4871      4870      4873      4874
      4871      4870      4873      4875      4871      4870      4873      4876
      4872      4870      4873      4874      4872      4870      4873      4875
      4872      4870      4873      4876      4873      4876      4879      4880
      4873      4876      4879      4881      4873      4876      4879      4882
      4874      4873      4876      4877      4874      4873      4876      4878
      4874      4873      4876      4879      4875      4873      4876      4877
      4875      4873      4876      4878      4875      4873      4876      4879
      4876      4879      4882      4883      4876      4879      4882      4884
      4876      4879      4882      4885      4877      4876      4879      4880
      4877      4876      4879      4881      4877      4876      4879      4882
      4878      4876      4879      4880      4878      4876      4879      4881
      4878      4876      4879      4882      4879      4882      4885      4886
      4879      4882      4885      4887      4879      4882      4885      4888
      4880      4879      4882      4883      4880      4879      4882      4884
      4880      4879      4882      4885      4881      4879      4882      4883
      4881      4879      4882      4884      4881      4879      4882      4885
      4882      4885      4888      4889      4882      4885      4888      4890
      4882      4885      4888      4891      4883      4882      4885      4886
      4883      4882      4885      4887      4883      4882      4885      4888
      4884      4882      4885      4886      4884      4882      4885      4887
      4884      4882      4885      4888      4885      4888      4891      4892
      4885      4888      4891      4893      4885      4888      4891      4894
      4886      4885      4888      4889      4886      4885      4888      4890
      4886      4885      4888      4891      4887      4885      4888      4889
      4887      4885      4888      4890      4887      4885      4888      4891
      4888      4891      4894      4895      4888      4891      4894      4896
      4888      4891      4894      4897      4889      4888      4891      4892
      4889      4888      4891      4893      4889      4888      4891      4894
      4890      4888      4891      4892      4890      4888      4891      4893
      4890      4888      4891      4894      4891      4894      4897      4898
      4891      4894      4897      4899      4891      4894      4897      4900
      4892      4891      4894      4895      4892      4891      4894      4896
      4892      4891      4894      4897      4893      4891      4894      4895
      4893      4891      4894      4896      4893      4891      4894      4897
      4894      4897      4900      4901      4894      4897      4900      4902
      4894      4897      4900      4903      4895      4894      4897      4898
      4895      4894      4897      4899      4895      4894      4897      4900
      4896      4894      4897      4898      4896      4894      4897      4899
      4896      4894      4897      4900      4897      4900      4903      4904
      4897      4900      4903      4905      4897      4900      4903      4906
      4898      4897      4900      4901      4898      4897      4900      4902
      4898      4897      4900      4903      4899      4897      4900      4901
      4899      4897      4900      4902      4899      4897      4900      4903
      4900      4903      4906      4907      4900      4903      4906      4908
      4900      4903      4906      4909      4901      4900      4903      4904
      4901      4900      4903      4905      4901      4900      4903      4906
      4902      4900      4903      4904      4902      4900      4903      4905
      4902      4900      4903      4906      4904      4903      4906      4907
      4904      4903      4906      4908      4904      4903      4906      4909
      4905      4903      4906      4907      4905      4903      4906      4908
      4905      4903      4906      4909      4910      4911      4926      4927
      4910      4911      4926      4928      4910      4911      4926      4932
      4911      4910      4914      4915      4911      4910      4914      4916
      4911      4910      4914      4917      4911      4910      4918      4919
      4911      4910      4918      4920      4911      4910      4918      4921
      4911      4910      4922      4923      4911      4910      4922      4924
      4911      4910      4922      4925      4911      4926      4932      4929
      4912      4911      4910      4914      4912      4911      4910      4918
      4912      4911      4910      4922      4912      4911      4926      4927
      4912      4911      4926      4928      4912      4911      4926      4932
      4913      4911      4910      4914      4913      4911      4910      4918
      4913      4911      4910      4922      4913      4911      4926      4927
      4913      4911      4926      4928      4913      4911      4926      4932
      4914      4910      4911      4926      4914      4910      4918      4919
      4914      4910      4918      4920      4914      4910      4918      4921
      4914      4910      4922      4923      4914      4910      4922      4924
      4914      4910      4922      4925      4915      4914      4910      4918
      4915      4914      4910      4922      4916      4914      4910      4918
      4916      4914      4910      4922      4917      4914      4910      4918
      4917      4914      4910      4922      4918      4910      4911      4926
      4918      4910      4922      4923      4918      4910      4922      4924
      4918      4910      4922      4925      4919      4918      4910      4922
      4920      4918      4910      4922      4921      4918      4910      4922
      4922      4910      4911      4926      4926      4932      4929      4930
      4926      4932      4929      4931      4926      4932      4929      4933
      4927      4926      4932      4929      4928      4926      4932      4929
      4929      4933      4934      4935      4929      4933      4934      4936
      4929      4933      4934      4937      4930      4929      4933      4934
      4931      4929      4933      4934      4932      4929      4933      4934
      4933      4934      4937      4938      4933      4934      4937      4939
      4933      4934      4937      4945      4934      4937      4939      4940
      4934      4937      4945      4946      4934      4937      4945      4947
      4934      4937      4945      4948      4935      4934      4937      4938
      4935      4934      4937      4939      4935      4934      4937      4945
      4936      4934      4937      4938      4936      4934      4937      4939
      4936      4934      4937      4945      4937      4939      4940      4941
      4937      4939      4940      4942      4937      4945      4948      4949
      4938      4937      4939      4940      4938      4937      4945      4946
      4938      4937      4945      4947      4938      4937      4945      4948
      4939      4937      4945      4946      4939      4937      4945      4947
      4939      4937      4945      4948      4939      4940      4942      4943
      4939      4940      4942      4944      4939      4940      4942      4954
      4940      4939      4937      4945      4940      4942      4954      4955
      4940      4942      4954      4956      4940      4942      4954      4957
      4941      4940      4942      4943      4941      4940      4942      4944
      4941      4940      4942      4954      4942      4954      4957      4958
      4942      4954      4957      4959      4942      4954      4957      4960
      4943      4942      4954      4955      4943      4942      4954      4956
      4943      4942      4954      4957      4944      4942      4954      4955
      4944      4942      4954      4956      4944      4942      4954      4957
      4945      4948      4949      4950      4945      4948      4949      4951
      4946      4945      4948      4949      4947      4945      4948      4949
      4948      4949      4951      4952      4948      4949      4951      4953
      4948      4949      4951      5001      4949      4951      5001      5002
      4949      4951      5001      5003      4949      4951      5001      5004
      4950      4949      4951      4952      4950      4949      4951      4953
      4950      4949      4951      5001      4951      5001      5004      5005
      4951      5001      5004      5006      4951      5001      5004      5007
      4952      4951      5001      5002      4952      4951      5001      5003
      4952      4951      5001      5004      4953      4951      5001      5002
      4953      4951      5001      5003      4953      4951      5001      5004
      4954      4957      4960      4961      4954      4957      4960      4962
      4954      4957      4960      4963      4955      4954      4957      4958
      4955      4954      4957      4959      4955      4954      4957      4960
      4956      4954      4957      4958      4956      4954      4957      4959
      4956      4954      4957      4960      4957      4960      4963      4964
      4957      4960      4963      4965      4957      4960      4963      4966
      4958      4957      4960      4961      4958      4957      4960      4962
      4958      4957      4960      4963      4959      4957      4960      4961
      4959      4957      4960      4962      4959      4957      4960      4963
      4960      4963      4966      4967      4960      4963      4966      4968
      4960      4963      4966      4969      4961      4960      4963      4964
      4961      4960      4963      4965      4961      4960      4963      4966
      4962      4960      4963      4964      4962      4960      4963      4965
      4962      4960      4963      4966      4963      4966      4969      4970
      4963      4966      4969      4971      4963      4966      4969      4972
      4964      4963      4966      4967      4964      4963      4966      4968
      4964      4963      4966      4969      4965      4963      4966      4967
      4965      4963      4966      4968      4965      4963      4966      4969
      4966      4969      4972      4973      4966      4969      4972      4974
      4967      4966      4969      4970      4967      4966      4969      4971
      4967      4966      4969      4972      4968      4966      4969      4970
      4968      4966      4969      4971      4968      4966      4969      4972
      4969      4972      4974      4975      4969      4972      4974      4976
      4970      4969      4972      4973      4970      4969      4972      4974
      4971      4969      4972      4973      4971      4969      4972      4974
      4972      4974      4976      4977      4972      4974      4976      4978
      4972      4974      4976      4979      4973      4972      4974      4975
      4973      4972      4974      4976      4974      4976      4979      4980
      4974      4976      4979      4981      4974      4976      4979      4982
      4975      4974      4976      4977      4975      4974      4976      4978
      4975      4974      4976      4979      4976      4979      4982      4983
      4976      4979      4982      4984      4976      4979      4982      4985
      4977      4976      4979      4980      4977      4976      4979      4981
      4977      4976      4979      4982      4978      4976      4979      4980
      4978      4976      4979      4981      4978      4976      4979      4982
      4979      4982      4985      4986      4979      4982      4985      4987
      4979      4982      4985      4988      4980      4979      4982      4983
      4980      4979      4982      4984      4980      4979      4982      4985
      4981      4979      4982      4983      4981      4979      4982      4984
      4981      4979      4982      4985      4982      4985      4988      4989
      4982      4985      4988      4990      4982      4985      4988      4991
      4983      4982      4985      4986      4983      4982      4985      4987
      4983      4982      4985      4988      4984      4982      4985      4986
      4984      4982      4985      4987      4984      4982      4985      4988
      4985      4988      4991      4992      4985      4988      4991      4993
      4985      4988      4991      4994      4986      4985      4988      4989
      4986      4985      4988      4990      4986      4985      4988      4991
      4987      4985      4988      4989      4987      4985      4988      4990
      4987      4985      4988      4991      4988      4991      4994      4995
      4988      4991      4994      4996      4988      4991      4994      4997
      4989      4988      4991      4992      4989      4988      4991      4993
      4989      4988      4991      4994      4990      4988      4991      4992
      4990      4988      4991      4993      4990      4988      4991      4994
      4991      4994      4997      4998      4991      4994      4997      4999
      4991      4994      4997      5000      4992      4991      4994      4995
      4992      4991      4994      4996      4992      4991      4994      4997
      4993      4991      4994      4995      4993      4991      4994      4996
      4993      4991      4994      4997      4995      4994      4997      4998
      4995      4994      4997      4999      4995      4994      4997      5000
      4996      4994      4997      4998      4996      4994      4997      4999
      4996      4994      4997      5000      5001      5004      5007      5008
      5001      5004      5007      5009      5001      5004      5007      5010
      5002      5001      5004      5005      5002      5001      5004      5006
      5002      5001      5004      5007      5003      5001      5004      5005
      5003      5001      5004      5006      5003      5001      5004      5007
      5004      5007      5010      5011      5004      5007      5010      5012
      5004      5007      5010      5013      5005      5004      5007      5008
      5005      5004      5007      5009      5005      5004      5007      5010
      5006      5004      5007      5008      5006      5004      5007      5009
      5006      5004      5007      5010      5007      5010      5013      5014
      5007      5010      5013      5015      5007      5010      5013      5016
      5008      5007      5010      5011      5008      5007      5010      5012
      5008      5007      5010      5013      5009      5007      5010      5011
      5009      5007      5010      5012      5009      5007      5010      5013
      5010      5013      5016      5017      5010      5013      5016      5018
      5010      5013      5016      5019      5011      5010      5013      5014
      5011      5010      5013      5015      5011      5010      5013      5016
      5012      5010      5013      5014      5012      5010      5013      5015
      5012      5010      5013      5016      5013      5016      5019      5020
      5013      5016      5019      5021      5013      5016      5019      5022
      5014      5013      5016      5017      5014      5013      5016      5018
      5014      5013      5016      5019      5015      5013      5016      5017
      5015      5013      5016      5018      5015      5013      5016      5019
      5016      5019      5022      5023      5016      5019      5022      5024
      5016      5019      5022      5025      5017      5016      5019      5020
      5017      5016      5019      5021      5017      5016      5019      5022
      5018      5016      5019      5020      5018      5016      5019      5021
      5018      5016      5019      5022      5019      5022      5025      5026
      5019      5022      5025      5027      5019      5022      5025      5028
      5020      5019      5022      5023      5020      5019      5022      5024
      5020      5019      5022      5025      5021      5019      5022      5023
      5021      5019      5022      5024      5021      5019      5022      5025
      5022      5025      5028      5029      5022      5025      5028      5030
      5022      5025      5028      5031      5023      5022      5025      5026
      5023      5022      5025      5027      5023      5022      5025      5028
      5024      5022      5025      5026      5024      5022      5025      5027
      5024      5022      5025      5028      5025      5028      5031      5032
      5025      5028      5031      5033      5025      5028      5031      5034
      5026      5025      5028      5029      5026      5025      5028      5030
      5026      5025      5028      5031      5027      5025      5028      5029
      5027      5025      5028      5030      5027      5025      5028      5031
      5028      5031      5034      5035      5028      5031      5034      5036
      5028      5031      5034      5037      5029      5028      5031      5032
      5029      5028      5031      5033      5029      5028      5031      5034
      5030      5028      5031      5032      5030      5028      5031      5033
      5030      5028      5031      5034      5031      5034      5037      5038
      5031      5034      5037      5039      5031      5034      5037      5040
      5032      5031      5034      5035      5032      5031      5034      5036
      5032      5031      5034      5037      5033      5031      5034      5035
      5033      5031      5034      5036      5033      5031      5034      5037
      5034      5037      5040      5041      5034      5037      5040      5042
      5034      5037      5040      5043      5035      5034      5037      5038
      5035      5034      5037      5039      5035      5034      5037      5040
      5036      5034      5037      5038      5036      5034      5037      5039
      5036      5034      5037      5040      5038      5037      5040      5041
      5038      5037      5040      5042      5038      5037      5040      5043
      5039      5037      5040      5041      5039      5037      5040      5042
      5039      5037      5040      5043      5044      5045      5060      5061
      5044      5045      5060      5062      5044      5045      5060      5066
      5045      5044      5048      5049      5045      5044      5048      5050
      5045      5044      5048      5051      5045      5044      5052      5053
      5045      5044      5052      5054      5045      5044      5052      5055
      5045      5044      5056      5057      5045      5044      5056      5058
      5045      5044      5056      5059      5045      5060      5066      5063
      5046      5045      5044      5048      5046      5045      5044      5052
      5046      5045      5044      5056      5046      5045      5060      5061
      5046      5045      5060      5062      5046      5045      5060      5066
      5047      5045      5044      5048      5047      5045      5044      5052
      5047      5045      5044      5056      5047      5045      5060      5061
      5047      5045      5060      5062      5047      5045      5060      5066
      5048      5044      5045      5060      5048      5044      5052      5053
      5048      5044      5052      5054      5048      5044      5052      5055
      5048      5044      5056      5057      5048      5044      5056      5058
      5048      5044      5056      5059      5049      5048      5044      5052
      5049      5048      5044      5056      5050      5048      5044      5052
      5050      5048      5044      5056      5051      5048      5044      5052
      5051      5048      5044      5056      5052      5044      5045      5060
      5052      5044      5056      5057      5052      5044      5056      5058
      5052      5044      5056      5059      5053      5052      5044      5056
      5054      5052      5044      5056      5055      5052      5044      5056
      5056      5044      5045      5060      5060      5066      5063      5064
      5060      5066      5063      5065      5060      5066      5063      5067
      5061      5060      5066      5063      5062      5060      5066      5063
      5063      5067      5068      5069      5063      5067      5068      5070
      5063      5067      5068      5071      5064      5063      5067      5068
      5065      5063      5067      5068      5066      5063      5067      5068
      5067      5068      5071      5072      5067      5068      5071      5073
      5067      5068      5071      5079      5068      5071      5073      5074
      5068      5071      5079      5080      5068      5071      5079      5081
      5068      5071      5079      5082      5069      5068      5071      5072
      5069      5068      5071      5073      5069      5068      5071      5079
      5070      5068      5071      5072      5070      5068      5071      5073
      5070      5068      5071      5079      5071      5073      5074      5075
      5071      5073      5074      5076      5071      5079      5082      5083
      5072      5071      5073      5074      5072      5071      5079      5080
      5072      5071      5079      5081      5072      5071      5079      5082
      5073      5071      5079      5080      5073      5071      5079      5081
      5073      5071      5079      5082      5073      5074      5076      5077
      5073      5074      5076      5078      5073      5074      5076      5088
      5074      5073      5071      5079      5074      5076      5088      5089
      5074      5076      5088      5090      5074      5076      5088      5091
      5075      5074      5076      5077      5075      5074      5076      5078
      5075      5074      5076      5088      5076      5088      5091      5092
      5076      5088      5091      5093      5076      5088      5091      5094
      5077      5076      5088      5089      5077      5076      5088      5090
      5077      5076      5088      5091      5078      5076      5088      5089
      5078      5076      5088      5090      5078      5076      5088      5091
      5079      5082      5083      5084      5079      5082      5083      5085
      5080      5079      5082      5083      5081      5079      5082      5083
      5082      5083      5085      5086      5082      5083      5085      5087
      5082      5083      5085      5135      5083      5085      5135      5136
      5083      5085      5135      5137      5083      5085      5135      5138
      5084      5083      5085      5086      5084      5083      5085      5087
      5084      5083      5085      5135      5085      5135      5138      5139
      5085      5135      5138      5140      5085      5135      5138      5141
      5086      5085      5135      5136      5086      5085      5135      5137
      5086      5085      5135      5138      5087      5085      5135      5136
      5087      5085      5135      5137      5087      5085      5135      5138
      5088      5091      5094      5095      5088      5091      5094      5096
      5088      5091      5094      5097      5089      5088      5091      5092
      5089      5088      5091      5093      5089      5088      5091      5094
      5090      5088      5091      5092      5090      5088      5091      5093
      5090      5088      5091      5094      5091      5094      5097      5098
      5091      5094      5097      5099      5091      5094      5097      5100
      5092      5091      5094      5095      5092      5091      5094      5096
      5092      5091      5094      5097      5093      5091      5094      5095
      5093      5091      5094      5096      5093      5091      5094      5097
      5094      5097      5100      5101      5094      5097      5100      5102
      5094      5097      5100      5103      5095      5094      5097      5098
      5095      5094      5097      5099      5095      5094      5097      5100
      5096      5094      5097      5098      5096      5094      5097      5099
      5096      5094      5097      5100      5097      5100      5103      5104
      5097      5100      5103      5105      5097      5100      5103      5106
      5098      5097      5100      5101      5098      5097      5100      5102
      5098      5097      5100      5103      5099      5097      5100      5101
      5099      5097      5100      5102      5099      5097      5100      5103
      5100      5103      5106      5107      5100      5103      5106      5108
      5101      5100      5103      5104      5101      5100      5103      5105
      5101      5100      5103      5106      5102      5100      5103      5104
      5102      5100      5103      5105      5102      5100      5103      5106
      5103      5106      5108      5109      5103      5106      5108      5110
      5104      5103      5106      5107      5104      5103      5106      5108
      5105      5103      5106      5107      5105      5103      5106      5108
      5106      5108      5110      5111      5106      5108      5110      5112
      5106      5108      5110      5113      5107      5106      5108      5109
      5107      5106      5108      5110      5108      5110      5113      5114
      5108      5110      5113      5115      5108      5110      5113      5116
      5109      5108      5110      5111      5109      5108      5110      5112
      5109      5108      5110      5113      5110      5113      5116      5117
      5110      5113      5116      5118      5110      5113      5116      5119
      5111      5110      5113      5114      5111      5110      5113      5115
      5111      5110      5113      5116      5112      5110      5113      5114
      5112      5110      5113      5115      5112      5110      5113      5116
      5113      5116      5119      5120      5113      5116      5119      5121
      5113      5116      5119      5122      5114      5113      5116      5117
      5114      5113      5116      5118      5114      5113      5116      5119
      5115      5113      5116      5117      5115      5113      5116      5118
      5115      5113      5116      5119      5116      5119      5122      5123
      5116      5119      5122      5124      5116      5119      5122      5125
      5117      5116      5119      5120      5117      5116      5119      5121
      5117      5116      5119      5122      5118      5116      5119      5120
      5118      5116      5119      5121      5118      5116      5119      5122
      5119      5122      5125      5126      5119      5122      5125      5127
      5119      5122      5125      5128      5120      5119      5122      5123
      5120      5119      5122      5124      5120      5119      5122      5125
      5121      5119      5122      5123      5121      5119      5122      5124
      5121      5119      5122      5125      5122      5125      5128      5129
      5122      5125      5128      5130      5122      5125      5128      5131
      5123      5122      5125      5126      5123      5122      5125      5127
      5123      5122      5125      5128      5124      5122      5125      5126
      5124      5122      5125      5127      5124      5122      5125      5128
      5125      5128      5131      5132      5125      5128      5131      5133
      5125      5128      5131      5134      5126      5125      5128      5129
      5126      5125      5128      5130      5126      5125      5128      5131
      5127      5125      5128      5129      5127      5125      5128      5130
      5127      5125      5128      5131      5129      5128      5131      5132
      5129      5128      5131      5133      5129      5128      5131      5134
      5130      5128      5131      5132      5130      5128      5131      5133
      5130      5128      5131      5134      5135      5138      5141      5142
      5135      5138      5141      5143      5135      5138      5141      5144
      5136      5135      5138      5139      5136      5135      5138      5140
      5136      5135      5138      5141      5137      5135      5138      5139
      5137      5135      5138      5140      5137      5135      5138      5141
      5138      5141      5144      5145      5138      5141      5144      5146
      5138      5141      5144      5147      5139      5138      5141      5142
      5139      5138      5141      5143      5139      5138      5141      5144
      5140      5138      5141      5142      5140      5138      5141      5143
      5140      5138      5141      5144      5141      5144      5147      5148
      5141      5144      5147      5149      5141      5144      5147      5150
      5142      5141      5144      5145      5142      5141      5144      5146
      5142      5141      5144      5147      5143      5141      5144      5145
      5143      5141      5144      5146      5143      5141      5144      5147
      5144      5147      5150      5151      5144      5147      5150      5152
      5144      5147      5150      5153      5145      5144      5147      5148
      5145      5144      5147      5149      5145      5144      5147      5150
      5146      5144      5147      5148      5146      5144      5147      5149
      5146      5144      5147      5150      5147      5150      5153      5154
      5147      5150      5153      5155      5147      5150      5153      5156
      5148      5147      5150      5151      5148      5147      5150      5152
      5148      5147      5150      5153      5149      5147      5150      5151
      5149      5147      5150      5152      5149      5147      5150      5153
      5150      5153      5156      5157      5150      5153      5156      5158
      5150      5153      5156      5159      5151      5150      5153      5154
      5151      5150      5153      5155      5151      5150      5153      5156
      5152      5150      5153      5154      5152      5150      5153      5155
      5152      5150      5153      5156      5153      5156      5159      5160
      5153      5156      5159      5161      5153      5156      5159      5162
      5154      5153      5156      5157      5154      5153      5156      5158
      5154      5153      5156      5159      5155      5153      5156      5157
      5155      5153      5156      5158      5155      5153      5156      5159
      5156      5159      5162      5163      5156      5159      5162      5164
      5156      5159      5162      5165      5157      5156      5159      5160
      5157      5156      5159      5161      5157      5156      5159      5162
      5158      5156      5159      5160      5158      5156      5159      5161
      5158      5156      5159      5162      5159      5162      5165      5166
      5159      5162      5165      5167      5159      5162      5165      5168
      5160      5159      5162      5163      5160      5159      5162      5164
      5160      5159      5162      5165      5161      5159      5162      5163
      5161      5159      5162      5164      5161      5159      5162      5165
      5162      5165      5168      5169      5162      5165      5168      5170
      5162      5165      5168      5171      5163      5162      5165      5166
      5163      5162      5165      5167      5163      5162      5165      5168
      5164      5162      5165      5166      5164      5162      5165      5167
      5164      5162      5165      5168      5165      5168      5171      5172
      5165      5168      5171      5173      5165      5168      5171      5174
      5166      5165      5168      5169      5166      5165      5168      5170
      5166      5165      5168      5171      5167      5165      5168      5169
      5167      5165      5168      5170      5167      5165      5168      5171
      5168      5171      5174      5175      5168      5171      5174      5176
      5168      5171      5174      5177      5169      5168      5171      5172
      5169      5168      5171      5173      5169      5168      5171      5174
      5170      5168      5171      5172      5170      5168      5171      5173
      5170      5168      5171      5174      5172      5171      5174      5175
      5172      5171      5174      5176      5172      5171      5174      5177
      5173      5171      5174      5175      5173      5171      5174      5176
      5173      5171      5174      5177      5178      5179      5194      5195
      5178      5179      5194      5196      5178      5179      5194      5200
      5179      5178      5182      5183      5179      5178      5182      5184
      5179      5178      5182      5185      5179      5178      5186      5187
      5179      5178      5186      5188      5179      5178      5186      5189
      5179      5178      5190      5191      5179      5178      5190      5192
      5179      5178      5190      5193      5179      5194      5200      5197
      5180      5179      5178      5182      5180      5179      5178      5186
      5180      5179      5178      5190      5180      5179      5194      5195
      5180      5179      5194      5196      5180      5179      5194      5200
      5181      5179      5178      5182      5181      5179      5178      5186
      5181      5179      5178      5190      5181      5179      5194      5195
      5181      5179      5194      5196      5181      5179      5194      5200
      5182      5178      5179      5194      5182      5178      5186      5187
      5182      5178      5186      5188      5182      5178      5186      5189
      5182      5178      5190      5191      5182      5178      5190      5192
      5182      5178      5190      5193      5183      5182      5178      5186
      5183      5182      5178      5190      5184      5182      5178      5186
      5184      5182      5178      5190      5185      5182      5178      5186
      5185      5182      5178      5190      5186      5178      5179      5194
      5186      5178      5190      5191      5186      5178      5190      5192
      5186      5178      5190      5193      5187      5186      5178      5190
      5188      5186      5178      5190      5189      5186      5178      5190
      5190      5178      5179      5194      5194      5200      5197      5198
      5194      5200      5197      5199      5194      5200      5197      5201
      5195      5194      5200      5197      5196      5194      5200      5197
      5197      5201      5202      5203      5197      5201      5202      5204
      5197      5201      5202      5205      5198      5197      5201      5202
      5199      5197      5201      5202      5200      5197      5201      5202
      5201      5202      5205      5206      5201      5202      5205      5207
      5201      5202      5205      5213      5202      5205      5207      5208
      5202      5205      5213      5214      5202      5205      5213      5215
      5202      5205      5213      5216      5203      5202      5205      5206
      5203      5202      5205      5207      5203      5202      5205      5213
      5204      5202      5205      5206      5204      5202      5205      5207
      5204      5202      5205      5213      5205      5207      5208      5209
      5205      5207      5208      5210      5205      5213      5216      5217
      5206      5205      5207      5208      5206      5205      5213      5214
      5206      5205      5213      5215      5206      5205      5213      5216
      5207      5205      5213      5214      5207      5205      5213      5215
      5207      5205      5213      5216      5207      5208      5210      5211
      5207      5208      5210      5212      5207      5208      5210      5222
      5208      5207      5205      5213      5208      5210      5222      5223
      5208      5210      5222      5224      5208      5210      5222      5225
      5209      5208      5210      5211      5209      5208      5210      5212
      5209      5208      5210      5222      5210      5222      5225      5226
      5210      5222      5225      5227      5210      5222      5225      5228
      5211      5210      5222      5223      5211      5210      5222      5224
      5211      5210      5222      5225      5212      5210      5222      5223
      5212      5210      5222      5224      5212      5210      5222      5225
      5213      5216      5217      5218      5213      5216      5217      5219
      5214      5213      5216      5217      5215      5213      5216      5217
      5216      5217      5219      5220      5216      5217      5219      5221
      5216      5217      5219      5269      5217      5219      5269      5270
      5217      5219      5269      5271      5217      5219      5269      5272
      5218      5217      5219      5220      5218      5217      5219      5221
      5218      5217      5219      5269      5219      5269      5272      5273
      5219      5269      5272      5274      5219      5269      5272      5275
      5220      5219      5269      5270      5220      5219      5269      5271
      5220      5219      5269      5272      5221      5219      5269      5270
      5221      5219      5269      5271      5221      5219      5269      5272
      5222      5225      5228      5229      5222      5225      5228      5230
      5222      5225      5228      5231      5223      5222      5225      5226
      5223      5222      5225      5227      5223      5222      5225      5228
      5224      5222      5225      5226      5224      5222      5225      5227
      5224      5222      5225      5228      5225      5228      5231      5232
      5225      5228      5231      5233      5225      5228      5231      5234
      5226      5225      5228      5229      5226      5225      5228      5230
      5226      5225      5228      5231      5227      5225      5228      5229
      5227      5225      5228      5230      5227      5225      5228      5231
      5228      5231      5234      5235      5228      5231      5234      5236
      5228      5231      5234      5237      5229      5228      5231      5232
      5229      5228      5231      5233      5229      5228      5231      5234
      5230      5228      5231      5232      5230      5228      5231      5233
      5230      5228      5231      5234      5231      5234      5237      5238
      5231      5234      5237      5239      5231      5234      5237      5240
      5232      5231      5234      5235      5232      5231      5234      5236
      5232      5231      5234      5237      5233      5231      5234      5235
      5233      5231      5234      5236      5233      5231      5234      5237
      5234      5237      5240      5241      5234      5237      5240      5242
      5235      5234      5237      5238      5235      5234      5237      5239
      5235      5234      5237      5240      5236      5234      5237      5238
      5236      5234      5237      5239      5236      5234      5237      5240
      5237      5240      5242      5243      5237      5240      5242      5244
      5238      5237      5240      5241      5238      5237      5240      5242
      5239      5237      5240      5241      5239      5237      5240      5242
      5240      5242      5244      5245      5240      5242      5244      5246
      5240      5242      5244      5247      5241      5240      5242      5243
      5241      5240      5242      5244      5242      5244      5247      5248
      5242      5244      5247      5249      5242      5244      5247      5250
      5243      5242      5244      5245      5243      5242      5244      5246
      5243      5242      5244      5247      5244      5247      5250      5251
      5244      5247      5250      5252      5244      5247      5250      5253
      5245      5244      5247      5248      5245      5244      5247      5249
      5245      5244      5247      5250      5246      5244      5247      5248
      5246      5244      5247      5249      5246      5244      5247      5250
      5247      5250      5253      5254      5247      5250      5253      5255
      5247      5250      5253      5256      5248      5247      5250      5251
      5248      5247      5250      5252      5248      5247      5250      5253
      5249      5247      5250      5251      5249      5247      5250      5252
      5249      5247      5250      5253      5250      5253      5256      5257
      5250      5253      5256      5258      5250      5253      5256      5259
      5251      5250      5253      5254      5251      5250      5253      5255
      5251      5250      5253      5256      5252      5250      5253      5254
      5252      5250      5253      5255      5252      5250      5253      5256
      5253      5256      5259      5260      5253      5256      5259      5261
      5253      5256      5259      5262      5254      5253      5256      5257
      5254      5253      5256      5258      5254      5253      5256      5259
      5255      5253      5256      5257      5255      5253      5256      5258
      5255      5253      5256      5259      5256      5259      5262      5263
      5256      5259      5262      5264      5256      5259      5262      5265
      5257      5256      5259      5260      5257      5256      5259      5261
      5257      5256      5259      5262      5258      5256      5259      5260
      5258      5256      5259      5261      5258      5256      5259      5262
      5259      5262      5265      5266      5259      5262      5265      5267
      5259      5262      5265      5268      5260      5259      5262      5263
      5260      5259      5262      5264      5260      5259      5262      5265
      5261      5259      5262      5263      5261      5259      5262      5264
      5261      5259      5262      5265      5263      5262      5265      5266
      5263      5262      5265      5267      5263      5262      5265      5268
      5264      5262      5265      5266      5264      5262      5265      5267
      5264      5262      5265      5268      5269      5272      5275      5276
      5269      5272      5275      5277      5269      5272      5275      5278
      5270      5269      5272      5273      5270      5269      5272      5274
      5270      5269      5272      5275      5271      5269      5272      5273
      5271      5269      5272      5274      5271      5269      5272      5275
      5272      5275      5278      5279      5272      5275      5278      5280
      5272      5275      5278      5281      5273      5272      5275      5276
      5273      5272      5275      5277      5273      5272      5275      5278
      5274      5272      5275      5276      5274      5272      5275      5277
      5274      5272      5275      5278      5275      5278      5281      5282
      5275      5278      5281      5283      5275      5278      5281      5284
      5276      5275      5278      5279      5276      5275      5278      5280
      5276      5275      5278      5281      5277      5275      5278      5279
      5277      5275      5278      5280      5277      5275      5278      5281
      5278      5281      5284      5285      5278      5281      5284      5286
      5278      5281      5284      5287      5279      5278      5281      5282
      5279      5278      5281      5283      5279      5278      5281      5284
      5280      5278      5281      5282      5280      5278      5281      5283
      5280      5278      5281      5284      5281      5284      5287      5288
      5281      5284      5287      5289      5281      5284      5287      5290
      5282      5281      5284      5285      5282      5281      5284      5286
      5282      5281      5284      5287      5283      5281      5284      5285
      5283      5281      5284      5286      5283      5281      5284      5287
      5284      5287      5290      5291      5284      5287      5290      5292
      5284      5287      5290      5293      5285      5284      5287      5288
      5285      5284      5287      5289      5285      5284      5287      5290
      5286      5284      5287      5288      5286      5284      5287      5289
      5286      5284      5287      5290      5287      5290      5293      5294
      5287      5290      5293      5295      5287      5290      5293      5296
      5288      5287      5290      5291      5288      5287      5290      5292
      5288      5287      5290      5293      5289      5287      5290      5291
      5289      5287      5290      5292      5289      5287      5290      5293
      5290      5293      5296      5297      5290      5293      5296      5298
      5290      5293      5296      5299      5291      5290      5293      5294
      5291      5290      5293      5295      5291      5290      5293      5296
      5292      5290      5293      5294      5292      5290      5293      5295
      5292      5290      5293      5296      5293      5296      5299      5300
      5293      5296      5299      5301      5293      5296      5299      5302
      5294      5293      5296      5297      5294      5293      5296      5298
      5294      5293      5296      5299      5295      5293      5296      5297
      5295      5293      5296      5298      5295      5293      5296      5299
      5296      5299      5302      5303      5296      5299      5302      5304
      5296      5299      5302      5305      5297      5296      5299      5300
      5297      5296      5299      5301      5297      5296      5299      5302
      5298      5296      5299      5300      5298      5296      5299      5301
      5298      5296      5299      5302      5299      5302      5305      5306
      5299      5302      5305      5307      5299      5302      5305      5308
      5300      5299      5302      5303      5300      5299      5302      5304
      5300      5299      5302      5305      5301      5299      5302      5303
      5301      5299      5302      5304      5301      5299      5302      5305
      5302      5305      5308      5309      5302      5305      5308      5310
      5302      5305      5308      5311      5303      5302      5305      5306
      5303      5302      5305      5307      5303      5302      5305      5308
      5304      5302      5305      5306      5304      5302      5305      5307
      5304      5302      5305      5308      5306      5305      5308      5309
      5306      5305      5308      5310      5306      5305      5308      5311
      5307      5305      5308      5309      5307      5305      5308      5310
      5307      5305      5308      5311      5312      5313      5328      5329
      5312      5313      5328      5330      5312      5313      5328      5334
      5313      5312      5316      5317      5313      5312      5316      5318
      5313      5312      5316      5319      5313      5312      5320      5321
      5313      5312      5320      5322      5313      5312      5320      5323
      5313      5312      5324      5325      5313      5312      5324      5326
      5313      5312      5324      5327      5313      5328      5334      5331
      5314      5313      5312      5316      5314      5313      5312      5320
      5314      5313      5312      5324      5314      5313      5328      5329
      5314      5313      5328      5330      5314      5313      5328      5334
      5315      5313      5312      5316      5315      5313      5312      5320
      5315      5313      5312      5324      5315      5313      5328      5329
      5315      5313      5328      5330      5315      5313      5328      5334
      5316      5312      5313      5328      5316      5312      5320      5321
      5316      5312      5320      5322      5316      5312      5320      5323
      5316      5312      5324      5325      5316      5312      5324      5326
      5316      5312      5324      5327      5317      5316      5312      5320
      5317      5316      5312      5324      5318      5316      5312      5320
      5318      5316      5312      5324      5319      5316      5312      5320
      5319      5316      5312      5324      5320      5312      5313      5328
      5320      5312      5324      5325      5320      5312      5324      5326
      5320      5312      5324      5327      5321      5320      5312      5324
      5322      5320      5312      5324      5323      5320      5312      5324
      5324      5312      5313      5328      5328      5334      5331      5332
      5328      5334      5331      5333      5328      5334      5331      5335
      5329      5328      5334      5331      5330      5328      5334      5331
      5331      5335      5336      5337      5331      5335      5336      5338
      5331      5335      5336      5339      5332      5331      5335      5336
      5333      5331      5335      5336      5334      5331      5335      5336
      5335      5336      5339      5340      5335      5336      5339      5341
      5335      5336      5339      5347      5336      5339      5341      5342
      5336      5339      5347      5348      5336      5339      5347      5349
      5336      5339      5347      5350      5337      5336      5339      5340
      5337      5336      5339      5341      5337      5336      5339      5347
      5338      5336      5339      5340      5338      5336      5339      5341
      5338      5336      5339      5347      5339      5341      5342      5343
      5339      5341      5342      5344      5339      5347      5350      5351
      5340      5339      5341      5342      5340      5339      5347      5348
      5340      5339      5347      5349      5340      5339      5347      5350
      5341      5339      5347      5348      5341      5339      5347      5349
      5341      5339      5347      5350      5341      5342      5344      5345
      5341      5342      5344      5346      5341      5342      5344      5356
      5342      5341      5339      5347      5342      5344      5356      5357
      5342      5344      5356      5358      5342      5344      5356      5359
      5343      5342      5344      5345      5343      5342      5344      5346
      5343      5342      5344      5356      5344      5356      5359      5360
      5344      5356      5359      5361      5344      5356      5359      5362
      5345      5344      5356      5357      5345      5344      5356      5358
      5345      5344      5356      5359      5346      5344      5356      5357
      5346      5344      5356      5358      5346      5344      5356      5359
      5347      5350      5351      5352      5347      5350      5351      5353
      5348      5347      5350      5351      5349      5347      5350      5351
      5350      5351      5353      5354      5350      5351      5353      5355
      5350      5351      5353      5403      5351      5353      5403      5404
      5351      5353      5403      5405      5351      5353      5403      5406
      5352      5351      5353      5354      5352      5351      5353      5355
      5352      5351      5353      5403      5353      5403      5406      5407
      5353      5403      5406      5408      5353      5403      5406      5409
      5354      5353      5403      5404      5354      5353      5403      5405
      5354      5353      5403      5406      5355      5353      5403      5404
      5355      5353      5403      5405      5355      5353      5403      5406
      5356      5359      5362      5363      5356      5359      5362      5364
      5356      5359      5362      5365      5357      5356      5359      5360
      5357      5356      5359      5361      5357      5356      5359      5362
      5358      5356      5359      5360      5358      5356      5359      5361
      5358      5356      5359      5362      5359      5362      5365      5366
      5359      5362      5365      5367      5359      5362      5365      5368
      5360      5359      5362      5363      5360      5359      5362      5364
      5360      5359      5362      5365      5361      5359      5362      5363
      5361      5359      5362      5364      5361      5359      5362      5365
      5362      5365      5368      5369      5362      5365      5368      5370
      5362      5365      5368      5371      5363      5362      5365      5366
      5363      5362      5365      5367      5363      5362      5365      5368
      5364      5362      5365      5366      5364      5362      5365      5367
      5364      5362      5365      5368      5365      5368      5371      5372
      5365      5368      5371      5373      5365      5368      5371      5374
      5366      5365      5368      5369      5366      5365      5368      5370
      5366      5365      5368      5371      5367      5365      5368      5369
      5367      5365      5368      5370      5367      5365      5368      5371
      5368      5371      5374      5375      5368      5371      5374      5376
      5369      5368      5371      5372      5369      5368      5371      5373
      5369      5368      5371      5374      5370      5368      5371      5372
      5370      5368      5371      5373      5370      5368      5371      5374
      5371      5374      5376      5377      5371      5374      5376      5378
      5372      5371      5374      5375      5372      5371      5374      5376
      5373      5371      5374      5375      5373      5371      5374      5376
      5374      5376      5378      5379      5374      5376      5378      5380
      5374      5376      5378      5381      5375      5374      5376      5377
      5375      5374      5376      5378      5376      5378      5381      5382
      5376      5378      5381      5383      5376      5378      5381      5384
      5377      5376      5378      5379      5377      5376      5378      5380
      5377      5376      5378      5381      5378      5381      5384      5385
      5378      5381      5384      5386      5378      5381      5384      5387
      5379      5378      5381      5382      5379      5378      5381      5383
      5379      5378      5381      5384      5380      5378      5381      5382
      5380      5378      5381      5383      5380      5378      5381      5384
      5381      5384      5387      5388      5381      5384      5387      5389
      5381      5384      5387      5390      5382      5381      5384      5385
      5382      5381      5384      5386      5382      5381      5384      5387
      5383      5381      5384      5385      5383      5381      5384      5386
      5383      5381      5384      5387      5384      5387      5390      5391
      5384      5387      5390      5392      5384      5387      5390      5393
      5385      5384      5387      5388      5385      5384      5387      5389
      5385      5384      5387      5390      5386      5384      5387      5388
      5386      5384      5387      5389      5386      5384      5387      5390
      5387      5390      5393      5394      5387      5390      5393      5395
      5387      5390      5393      5396      5388      5387      5390      5391
      5388      5387      5390      5392      5388      5387      5390      5393
      5389      5387      5390      5391      5389      5387      5390      5392
      5389      5387      5390      5393      5390      5393      5396      5397
      5390      5393      5396      5398      5390      5393      5396      5399
      5391      5390      5393      5394      5391      5390      5393      5395
      5391      5390      5393      5396      5392      5390      5393      5394
      5392      5390      5393      5395      5392      5390      5393      5396
      5393      5396      5399      5400      5393      5396      5399      5401
      5393      5396      5399      5402      5394      5393      5396      5397
      5394      5393      5396      5398      5394      5393      5396      5399
      5395      5393      5396      5397      5395      5393      5396      5398
      5395      5393      5396      5399      5397      5396      5399      5400
      5397      5396      5399      5401      5397      5396      5399      5402
      5398      5396      5399      5400      5398      5396      5399      5401
      5398      5396      5399      5402      5403      5406      5409      5410
      5403      5406      5409      5411      5403      5406      5409      5412
      5404      5403      5406      5407      5404      5403      5406      5408
      5404      5403      5406      5409      5405      5403      5406      5407
      5405      5403      5406      5408      5405      5403      5406      5409
      5406      5409      5412      5413      5406      5409      5412      5414
      5406      5409      5412      5415      5407      5406      5409      5410
      5407      5406      5409      5411      5407      5406      5409      5412
      5408      5406      5409      5410      5408      5406      5409      5411
      5408      5406      5409      5412      5409      5412      5415      5416
      5409      5412      5415      5417      5409      5412      5415      5418
      5410      5409      5412      5413      5410      5409      5412      5414
      5410      5409      5412      5415      5411      5409      5412      5413
      5411      5409      5412      5414      5411      5409      5412      5415
      5412      5415      5418      5419      5412      5415      5418      5420
      5412      5415      5418      5421      5413      5412      5415      5416
      5413      5412      5415      5417      5413      5412      5415      5418
      5414      5412      5415      5416      5414      5412      5415      5417
      5414      5412      5415      5418      5415      5418      5421      5422
      5415      5418      5421      5423      5415      5418      5421      5424
      5416      5415      5418      5419      5416      5415      5418      5420
      5416      5415      5418      5421      5417      5415      5418      5419
      5417      5415      5418      5420      5417      5415      5418      5421
      5418      5421      5424      5425      5418      5421      5424      5426
      5418      5421      5424      5427      5419      5418      5421      5422
      5419      5418      5421      5423      5419      5418      5421      5424
      5420      5418      5421      5422      5420      5418      5421      5423
      5420      5418      5421      5424      5421      5424      5427      5428
      5421      5424      5427      5429      5421      5424      5427      5430
      5422      5421      5424      5425      5422      5421      5424      5426
      5422      5421      5424      5427      5423      5421      5424      5425
      5423      5421      5424      5426      5423      5421      5424      5427
      5424      5427      5430      5431      5424      5427      5430      5432
      5424      5427      5430      5433      5425      5424      5427      5428
      5425      5424      5427      5429      5425      5424      5427      5430
      5426      5424      5427      5428      5426      5424      5427      5429
      5426      5424      5427      5430      5427      5430      5433      5434
      5427      5430      5433      5435      5427      5430      5433      5436
      5428      5427      5430      5431      5428      5427      5430      5432
      5428      5427      5430      5433      5429      5427      5430      5431
      5429      5427      5430      5432      5429      5427      5430      5433
      5430      5433      5436      5437      5430      5433      5436      5438
      5430      5433      5436      5439      5431      5430      5433      5434
      5431      5430      5433      5435      5431      5430      5433      5436
      5432      5430      5433      5434      5432      5430      5433      5435
      5432      5430      5433      5436      5433      5436      5439      5440
      5433      5436      5439      5441      5433      5436      5439      5442
      5434      5433      5436      5437      5434      5433      5436      5438
      5434      5433      5436      5439      5435      5433      5436      5437
      5435      5433      5436      5438      5435      5433      5436      5439
      5436      5439      5442      5443      5436      5439      5442      5444
      5436      5439      5442      5445      5437      5436      5439      5440
      5437      5436      5439      5441      5437      5436      5439      5442
      5438      5436      5439      5440      5438      5436      5439      5441
      5438      5436      5439      5442      5440      5439      5442      5443
      5440      5439      5442      5444      5440      5439      5442      5445
      5441      5439      5442      5443      5441      5439      5442      5444
      5441      5439      5442      5445      5446      5447      5462      5463
      5446      5447      5462      5464      5446      5447      5462      5468
      5447      5446      5450      5451      5447      5446      5450      5452
      5447      5446      5450      5453      5447      5446      5454      5455
      5447      5446      5454      5456      5447      5446      5454      5457
      5447      5446      5458      5459      5447      5446      5458      5460
      5447      5446      5458      5461      5447      5462      5468      5465
      5448      5447      5446      5450      5448      5447      5446      5454
      5448      5447      5446      5458      5448      5447      5462      5463
      5448      5447      5462      5464      5448      5447      5462      5468
      5449      5447      5446      5450      5449      5447      5446      5454
      5449      5447      5446      5458      5449      5447      5462      5463
      5449      5447      5462      5464      5449      5447      5462      5468
      5450      5446      5447      5462      5450      5446      5454      5455
      5450      5446      5454      5456      5450      5446      5454      5457
      5450      5446      5458      5459      5450      5446      5458      5460
      5450      5446      5458      5461      5451      5450      5446      5454
      5451      5450      5446      5458      5452      5450      5446      5454
      5452      5450      5446      5458      5453      5450      5446      5454
      5453      5450      5446      5458      5454      5446      5447      5462
      5454      5446      5458      5459      5454      5446      5458      5460
      5454      5446      5458      5461      5455      5454      5446      5458
      5456      5454      5446      5458      5457      5454      5446      5458
      5458      5446      5447      5462      5462      5468      5465      5466
      5462      5468      5465      5467      5462      5468      5465      5469
      5463      5462      5468      5465      5464      5462      5468      5465
      5465      5469      5470      5471      5465      5469      5470      5472
      5465      5469      5470      5473      5466      5465      5469      5470
      5467      5465      5469      5470      5468      5465      5469      5470
      5469      5470      5473      5474      5469      5470      5473      5475
      5469      5470      5473      5481      5470      5473      5475      5476
      5470      5473      5481      5482      5470      5473      5481      5483
      5470      5473      5481      5484      5471      5470      5473      5474
      5471      5470      5473      5475      5471      5470      5473      5481
      5472      5470      5473      5474      5472      5470      5473      5475
      5472      5470      5473      5481      5473      5475      5476      5477
      5473      5475      5476      5478      5473      5481      5484      5485
      5474      5473      5475      5476      5474      5473      5481      5482
      5474      5473      5481      5483      5474      5473      5481      5484
      5475      5473      5481      5482      5475      5473      5481      5483
      5475      5473      5481      5484      5475      5476      5478      5479
      5475      5476      5478      5480      5475      5476      5478      5490
      5476      5475      5473      5481      5476      5478      5490      5491
      5476      5478      5490      5492      5476      5478      5490      5493
      5477      5476      5478      5479      5477      5476      5478      5480
      5477      5476      5478      5490      5478      5490      5493      5494
      5478      5490      5493      5495      5478      5490      5493      5496
      5479      5478      5490      5491      5479      5478      5490      5492
      5479      5478      5490      5493      5480      5478      5490      5491
      5480      5478      5490      5492      5480      5478      5490      5493
      5481      5484      5485      5486      5481      5484      5485      5487
      5482      5481      5484      5485      5483      5481      5484      5485
      5484      5485      5487      5488      5484      5485      5487      5489
      5484      5485      5487      5537      5485      5487      5537      5538
      5485      5487      5537      5539      5485      5487      5537      5540
      5486      5485      5487      5488      5486      5485      5487      5489
      5486      5485      5487      5537      5487      5537      5540      5541
      5487      5537      5540      5542      5487      5537      5540      5543
      5488      5487      5537      5538      5488      5487      5537      5539
      5488      5487      5537      5540      5489      5487      5537      5538
      5489      5487      5537      5539      5489      5487      5537      5540
      5490      5493      5496      5497      5490      5493      5496      5498
      5490      5493      5496      5499      5491      5490      5493      5494
      5491      5490      5493      5495      5491      5490      5493      5496
      5492      5490      5493      5494      5492      5490      5493      5495
      5492      5490      5493      5496      5493      5496      5499      5500
      5493      5496      5499      5501      5493      5496      5499      5502
      5494      5493      5496      5497      5494      5493      5496      5498
      5494      5493      5496      5499      5495      5493      5496      5497
      5495      5493      5496      5498      5495      5493      5496      5499
      5496      5499      5502      5503      5496      5499      5502      5504
      5496      5499      5502      5505      5497      5496      5499      5500
      5497      5496      5499      5501      5497      5496      5499      5502
      5498      5496      5499      5500      5498      5496      5499      5501
      5498      5496      5499      5502      5499      5502      5505      5506
      5499      5502      5505      5507      5499      5502      5505      5508
      5500      5499      5502      5503      5500      5499      5502      5504
      5500      5499      5502      5505      5501      5499      5502      5503
      5501      5499      5502      5504      5501      5499      5502      5505
      5502      5505      5508      5509      5502      5505      5508      5510
      5503      5502      5505      5506      5503      5502      5505      5507
      5503      5502      5505      5508      5504      5502      5505      5506
      5504      5502      5505      5507      5504      5502      5505      5508
      5505      5508      5510      5511      5505      5508      5510      5512
      5506      5505      5508      5509      5506      5505      5508      5510
      5507      5505      5508      5509      5507      5505      5508      5510
      5508      5510      5512      5513      5508      5510      5512      5514
      5508      5510      5512      5515      5509      5508      5510      5511
      5509      5508      5510      5512      5510      5512      5515      5516
      5510      5512      5515      5517      5510      5512      5515      5518
      5511      5510      5512      5513      5511      5510      5512      5514
      5511      5510      5512      5515      5512      5515      5518      5519
      5512      5515      5518      5520      5512      5515      5518      5521
      5513      5512      5515      5516      5513      5512      5515      5517
      5513      5512      5515      5518      5514      5512      5515      5516
      5514      5512      5515      5517      5514      5512      5515      5518
      5515      5518      5521      5522      5515      5518      5521      5523
      5515      5518      5521      5524      5516      5515      5518      5519
      5516      5515      5518      5520      5516      5515      5518      5521
      5517      5515      5518      5519      5517      5515      5518      5520
      5517      5515      5518      5521      5518      5521      5524      5525
      5518      5521      5524      5526      5518      5521      5524      5527
      5519      5518      5521      5522      5519      5518      5521      5523
      5519      5518      5521      5524      5520      5518      5521      5522
      5520      5518      5521      5523      5520      5518      5521      5524
      5521      5524      5527      5528      5521      5524      5527      5529
      5521      5524      5527      5530      5522      5521      5524      5525
      5522      5521      5524      5526      5522      5521      5524      5527
      5523      5521      5524      5525      5523      5521      5524      5526
      5523      5521      5524      5527      5524      5527      5530      5531
      5524      5527      5530      5532      5524      5527      5530      5533
      5525      5524      5527      5528      5525      5524      5527      5529
      5525      5524      5527      5530      5526      5524      5527      5528
      5526      5524      5527      5529      5526      5524      5527      5530
      5527      5530      5533      5534      5527      5530      5533      5535
      5527      5530      5533      5536      5528      5527      5530      5531
      5528      5527      5530      5532      5528      5527      5530      5533
      5529      5527      5530      5531      5529      5527      5530      5532
      5529      5527      5530      5533      5531      5530      5533      5534
      5531      5530      5533      5535      5531      5530      5533      5536
      5532      5530      5533      5534      5532      5530      5533      5535
      5532      5530      5533      5536      5537      5540      5543      5544
      5537      5540      5543      5545      5537      5540      5543      5546
      5538      5537      5540      5541      5538      5537      5540      5542
      5538      5537      5540      5543      5539      5537      5540      5541
      5539      5537      5540      5542      5539      5537      5540      5543
      5540      5543      5546      5547      5540      5543      5546      5548
      5540      5543      5546      5549      5541      5540      5543      5544
      5541      5540      5543      5545      5541      5540      5543      5546
      5542      5540      5543      5544      5542      5540      5543      5545
      5542      5540      5543      5546      5543      5546      5549      5550
      5543      5546      5549      5551      5543      5546      5549      5552
      5544      5543      5546      5547      5544      5543      5546      5548
      5544      5543      5546      5549      5545      5543      5546      5547
      5545      5543      5546      5548      5545      5543      5546      5549
      5546      5549      5552      5553      5546      5549      5552      5554
      5546      5549      5552      5555      5547      5546      5549      5550
      5547      5546      5549      5551      5547      5546      5549      5552
      5548      5546      5549      5550      5548      5546      5549      5551
      5548      5546      5549      5552      5549      5552      5555      5556
      5549      5552      5555      5557      5549      5552      5555      5558
      5550      5549      5552      5553      5550      5549      5552      5554
      5550      5549      5552      5555      5551      5549      5552      5553
      5551      5549      5552      5554      5551      5549      5552      5555
      5552      5555      5558      5559      5552      5555      5558      5560
      5552      5555      5558      5561      5553      5552      5555      5556
      5553      5552      5555      5557      5553      5552      5555      5558
      5554      5552      5555      5556      5554      5552      5555      5557
      5554      5552      5555      5558      5555      5558      5561      5562
      5555      5558      5561      5563      5555      5558      5561      5564
      5556      5555      5558      5559      5556      5555      5558      5560
      5556      5555      5558      5561      5557      5555      5558      5559
      5557      5555      5558      5560      5557      5555      5558      5561
      5558      5561      5564      5565      5558      5561      5564      5566
      5558      5561      5564      5567      5559      5558      5561      5562
      5559      5558      5561      5563      5559      5558      5561      5564
      5560      5558      5561      5562      5560      5558      5561      5563
      5560      5558      5561      5564      5561      5564      5567      5568
      5561      5564      5567      5569      5561      5564      5567      5570
      5562      5561      5564      5565      5562      5561      5564      5566
      5562      5561      5564      5567      5563      5561      5564      5565
      5563      5561      5564      5566      5563      5561      5564      5567
      5564      5567      5570      5571      5564      5567      5570      5572
      5564      5567      5570      5573      5565      5564      5567      5568
      5565      5564      5567      5569      5565      5564      5567      5570
      5566      5564      5567      5568      5566      5564      5567      5569
      5566      5564      5567      5570      5567      5570      5573      5574
      5567      5570      5573      5575      5567      5570      5573      5576
      5568      5567      5570      5571      5568      5567      5570      5572
      5568      5567      5570      5573      5569      5567      5570      5571
      5569      5567      5570      5572      5569      5567      5570      5573
      5570      5573      5576      5577      5570      5573      5576      5578
      5570      5573      5576      5579      5571      5570      5573      5574
      5571      5570      5573      5575      5571      5570      5573      5576
      5572      5570      5573      5574      5572      5570      5573      5575
      5572      5570      5573      5576      5574      5573      5576      5577
      5574      5573      5576      5578      5574      5573      5576      5579
      5575      5573      5576      5577      5575      5573      5576      5578
      5575      5573      5576      5579      5580      5581      5596      5597
      5580      5581      5596      5598      5580      5581      5596      5602
      5581      5580      5584      5585      5581      5580      5584      5586
      5581      5580      5584      5587      5581      5580      5588      5589
      5581      5580      5588      5590      5581      5580      5588      5591
      5581      5580      5592      5593      5581      5580      5592      5594
      5581      5580      5592      5595      5581      5596      5602      5599
      5582      5581      5580      5584      5582      5581      5580      5588
      5582      5581      5580      5592      5582      5581      5596      5597
      5582      5581      5596      5598      5582      5581      5596      5602
      5583      5581      5580      5584      5583      5581      5580      5588
      5583      5581      5580      5592      5583      5581      5596      5597
      5583      5581      5596      5598      5583      5581      5596      5602
      5584      5580      5581      5596      5584      5580      5588      5589
      5584      5580      5588      5590      5584      5580      5588      5591
      5584      5580      5592      5593      5584      5580      5592      5594
      5584      5580      5592      5595      5585      5584      5580      5588
      5585      5584      5580      5592      5586      5584      5580      5588
      5586      5584      5580      5592      5587      5584      5580      5588
      5587      5584      5580      5592      5588      5580      5581      5596
      5588      5580      5592      5593      5588      5580      5592      5594
      5588      5580      5592      5595      5589      5588      5580      5592
      5590      5588      5580      5592      5591      5588      5580      5592
      5592      5580      5581      5596      5596      5602      5599      5600
      5596      5602      5599      5601      5596      5602      5599      5603
      5597      5596      5602      5599      5598      5596      5602      5599
      5599      5603      5604      5605      5599      5603      5604      5606
      5599      5603      5604      5607      5600      5599      5603      5604
      5601      5599      5603      5604      5602      5599      5603      5604
      5603      5604      5607      5608      5603      5604      5607      5609
      5603      5604      5607      5615      5604      5607      5609      5610
      5604      5607      5615      5616      5604      5607      5615      5617
      5604      5607      5615      5618      5605      5604      5607      5608
      5605      5604      5607      5609      5605      5604      5607      5615
      5606      5604      5607      5608      5606      5604      5607      5609
      5606      5604      5607      5615      5607      5609      5610      5611
      5607      5609      5610      5612      5607      5615      5618      5619
      5608      5607      5609      5610      5608      5607      5615      5616
      5608      5607      5615      5617      5608      5607      5615      5618
      5609      5607      5615      5616      5609      5607      5615      5617
      5609      5607      5615      5618      5609      5610      5612      5613
      5609      5610      5612      5614      5609      5610      5612      5624
      5610      5609      5607      5615      5610      5612      5624      5625
      5610      5612      5624      5626      5610      5612      5624      5627
      5611      5610      5612      5613      5611      5610      5612      5614
      5611      5610      5612      5624      5612      5624      5627      5628
      5612      5624      5627      5629      5612      5624      5627      5630
      5613      5612      5624      5625      5613      5612      5624      5626
      5613      5612      5624      5627      5614      5612      5624      5625
      5614      5612      5624      5626      5614      5612      5624      5627
      5615      5618      5619      5620      5615      5618      5619      5621
      5616      5615      5618      5619      5617      5615      5618      5619
      5618      5619      5621      5622      5618      5619      5621      5623
      5618      5619      5621      5671      5619      5621      5671      5672
      5619      5621      5671      5673      5619      5621      5671      5674
      5620      5619      5621      5622      5620      5619      5621      5623
      5620      5619      5621      5671      5621      5671      5674      5675
      5621      5671      5674      5676      5621      5671      5674      5677
      5622      5621      5671      5672      5622      5621      5671      5673
      5622      5621      5671      5674      5623      5621      5671      5672
      5623      5621      5671      5673      5623      5621      5671      5674
      5624      5627      5630      5631      5624      5627      5630      5632
      5624      5627      5630      5633      5625      5624      5627      5628
      5625      5624      5627      5629      5625      5624      5627      5630
      5626      5624      5627      5628      5626      5624      5627      5629
      5626      5624      5627      5630      5627      5630      5633      5634
      5627      5630      5633      5635      5627      5630      5633      5636
      5628      5627      5630      5631      5628      5627      5630      5632
      5628      5627      5630      5633      5629      5627      5630      5631
      5629      5627      5630      5632      5629      5627      5630      5633
      5630      5633      5636      5637      5630      5633      5636      5638
      5630      5633      5636      5639      5631      5630      5633      5634
      5631      5630      5633      5635      5631      5630      5633      5636
      5632      5630      5633      5634      5632      5630      5633      5635
      5632      5630      5633      5636      5633      5636      5639      5640
      5633      5636      5639      5641      5633      5636      5639      5642
      5634      5633      5636      5637      5634      5633      5636      5638
      5634      5633      5636      5639      5635      5633      5636      5637
      5635      5633      5636      5638      5635      5633      5636      5639
      5636      5639      5642      5643      5636      5639      5642      5644
      5637      5636      5639      5640      5637      5636      5639      5641
      5637      5636      5639      5642      5638      5636      5639      5640
      5638      5636      5639      5641      5638      5636      5639      5642
      5639      5642      5644      5645      5639      5642      5644      5646
      5640      5639      5642      5643      5640      5639      5642      5644
      5641      5639      5642      5643      5641      5639      5642      5644
      5642      5644      5646      5647      5642      5644      5646      5648
      5642      5644      5646      5649      5643      5642      5644      5645
      5643      5642      5644      5646      5644      5646      5649      5650
      5644      5646      5649      5651      5644      5646      5649      5652
      5645      5644      5646      5647      5645      5644      5646      5648
      5645      5644      5646      5649      5646      5649      5652      5653
      5646      5649      5652      5654      5646      5649      5652      5655
      5647      5646      5649      5650      5647      5646      5649      5651
      5647      5646      5649      5652      5648      5646      5649      5650
      5648      5646      5649      5651      5648      5646      5649      5652
      5649      5652      5655      5656      5649      5652      5655      5657
      5649      5652      5655      5658      5650      5649      5652      5653
      5650      5649      5652      5654      5650      5649      5652      5655
      5651      5649      5652      5653      5651      5649      5652      5654
      5651      5649      5652      5655      5652      5655      5658      5659
      5652      5655      5658      5660      5652      5655      5658      5661
      5653      5652      5655      5656      5653      5652      5655      5657
      5653      5652      5655      5658      5654      5652      5655      5656
      5654      5652      5655      5657      5654      5652      5655      5658
      5655      5658      5661      5662      5655      5658      5661      5663
      5655      5658      5661      5664      5656      5655      5658      5659
      5656      5655      5658      5660      5656      5655      5658      5661
      5657      5655      5658      5659      5657      5655      5658      5660
      5657      5655      5658      5661      5658      5661      5664      5665
      5658      5661      5664      5666      5658      5661      5664      5667
      5659      5658      5661      5662      5659      5658      5661      5663
      5659      5658      5661      5664      5660      5658      5661      5662
      5660      5658      5661      5663      5660      5658      5661      5664
      5661      5664      5667      5668      5661      5664      5667      5669
      5661      5664      5667      5670      5662      5661      5664      5665
      5662      5661      5664      5666      5662      5661      5664      5667
      5663      5661      5664      5665      5663      5661      5664      5666
      5663      5661      5664      5667      5665      5664      5667      5668
      5665      5664      5667      5669      5665      5664      5667      5670
      5666      5664      5667      5668      5666      5664      5667      5669
      5666      5664      5667      5670      5671      5674      5677      5678
      5671      5674      5677      5679      5671      5674      5677      5680
      5672      5671      5674      5675      5672      5671      5674      5676
      5672      5671      5674      5677      5673      5671      5674      5675
      5673      5671      5674      5676      5673      5671      5674      5677
      5674      5677      5680      5681      5674      5677      5680      5682
      5674      5677      5680      5683      5675      5674      5677      5678
      5675      5674      5677      5679      5675      5674      5677      5680
      5676      5674      5677      5678      5676      5674      5677      5679
      5676      5674      5677      5680      5677      5680      5683      5684
      5677      5680      5683      5685      5677      5680      5683      5686
      5678      5677      5680      5681      5678      5677      5680      5682
      5678      5677      5680      5683      5679      5677      5680      5681
      5679      5677      5680      5682      5679      5677      5680      5683
      5680      5683      5686      5687      5680      5683      5686      5688
      5680      5683      5686      5689      5681      5680      5683      5684
      5681      5680      5683      5685      5681      5680      5683      5686
      5682      5680      5683      5684      5682      5680      5683      5685
      5682      5680      5683      5686      5683      5686      5689      5690
      5683      5686      5689      5691      5683      5686      5689      5692
      5684      5683      5686      5687      5684      5683      5686      5688
      5684      5683      5686      5689      5685      5683      5686      5687
      5685      5683      5686      5688      5685      5683      5686      5689
      5686      5689      5692      5693      5686      5689      5692      5694
      5686      5689      5692      5695      5687      5686      5689      5690
      5687      5686      5689      5691      5687      5686      5689      5692
      5688      5686      5689      5690      5688      5686      5689      5691
      5688      5686      5689      5692      5689      5692      5695      5696
      5689      5692      5695      5697      5689      5692      5695      5698
      5690      5689      5692      5693      5690      5689      5692      5694
      5690      5689      5692      5695      5691      5689      5692      5693
      5691      5689      5692      5694      5691      5689      5692      5695
      5692      5695      5698      5699      5692      5695      5698      5700
      5692      5695      5698      5701      5693      5692      5695      5696
      5693      5692      5695      5697      5693      5692      5695      5698
      5694      5692      5695      5696      5694      5692      5695      5697
      5694      5692      5695      5698      5695      5698      5701      5702
      5695      5698      5701      5703      5695      5698      5701      5704
      5696      5695      5698      5699      5696      5695      5698      5700
      5696      5695      5698      5701      5697      5695      5698      5699
      5697      5695      5698      5700      5697      5695      5698      5701
      5698      5701      5704      5705      5698      5701      5704      5706
      5698      5701      5704      5707      5699      5698      5701      5702
      5699      5698      5701      5703      5699      5698      5701      5704
      5700      5698      5701      5702      5700      5698      5701      5703
      5700      5698      5701      5704      5701      5704      5707      5708
      5701      5704      5707      5709      5701      5704      5707      5710
      5702      5701      5704      5705      5702      5701      5704      5706
      5702      5701      5704      5707      5703      5701      5704      5705
      5703      5701      5704      5706      5703      5701      5704      5707
      5704      5707      5710      5711      5704      5707      5710      5712
      5704      5707      5710      5713      5705      5704      5707      5708
      5705      5704      5707      5709      5705      5704      5707      5710
      5706      5704      5707      5708      5706      5704      5707      5709
      5706      5704      5707      5710      5708      5707      5710      5711
      5708      5707      5710      5712      5708      5707      5710      5713
      5709      5707      5710      5711      5709      5707      5710      5712
      5709      5707      5710      5713      5714      5715      5730      5731
      5714      5715      5730      5732      5714      5715      5730      5736
      5715      5714      5718      5719      5715      5714      5718      5720
      5715      5714      5718      5721      5715      5714      5722      5723
      5715      5714      5722      5724      5715      5714      5722      5725
      5715      5714      5726      5727      5715      5714      5726      5728
      5715      5714      5726      5729      5715      5730      5736      5733
      5716      5715      5714      5718      5716      5715      5714      5722
      5716      5715      5714      5726      5716      5715      5730      5731
      5716      5715      5730      5732      5716      5715      5730      5736
      5717      5715      5714      5718      5717      5715      5714      5722
      5717      5715      5714      5726      5717      5715      5730      5731
      5717      5715      5730      5732      5717      5715      5730      5736
      5718      5714      5715      5730      5718      5714      5722      5723
      5718      5714      5722      5724      5718      5714      5722      5725
      5718      5714      5726      5727      5718      5714      5726      5728
      5718      5714      5726      5729      5719      5718      5714      5722
      5719      5718      5714      5726      5720      5718      5714      5722
      5720      5718      5714      5726      5721      5718      5714      5722
      5721      5718      5714      5726      5722      5714      5715      5730
      5722      5714      5726      5727      5722      5714      5726      5728
      5722      5714      5726      5729      5723      5722      5714      5726
      5724      5722      5714      5726      5725      5722      5714      5726
      5726      5714      5715      5730      5730      5736      5733      5734
      5730      5736      5733      5735      5730      5736      5733      5737
      5731      5730      5736      5733      5732      5730      5736      5733
      5733      5737      5738      5739      5733      5737      5738      5740
      5733      5737      5738      5741      5734      5733      5737      5738
      5735      5733      5737      5738      5736      5733      5737      5738
      5737      5738      5741      5742      5737      5738      5741      5743
      5737      5738      5741      5749      5738      5741      5743      5744
      5738      5741      5749      5750      5738      5741      5749      5751
      5738      5741      5749      5752      5739      5738      5741      5742
      5739      5738      5741      5743      5739      5738      5741      5749
      5740      5738      5741      5742      5740      5738      5741      5743
      5740      5738      5741      5749      5741      5743      5744      5745
      5741      5743      5744      5746      5741      5749      5752      5753
      5742      5741      5743      5744      5742      5741      5749      5750
      5742      5741      5749      5751      5742      5741      5749      5752
      5743      5741      5749      5750      5743      5741      5749      5751
      5743      5741      5749      5752      5743      5744      5746      5747
      5743      5744      5746      5748      5743      5744      5746      5758
      5744      5743      5741      5749      5744      5746      5758      5759
      5744      5746      5758      5760      5744      5746      5758      5761
      5745      5744      5746      5747      5745      5744      5746      5748
      5745      5744      5746      5758      5746      5758      5761      5762
      5746      5758      5761      5763      5746      5758      5761      5764
      5747      5746      5758      5759      5747      5746      5758      5760
      5747      5746      5758      5761      5748      5746      5758      5759
      5748      5746      5758      5760      5748      5746      5758      5761
      5749      5752      5753      5754      5749      5752      5753      5755
      5750      5749      5752      5753      5751      5749      5752      5753
      5752      5753      5755      5756      5752      5753      5755      5757
      5752      5753      5755      5805      5753      5755      5805      5806
      5753      5755      5805      5807      5753      5755      5805      5808
      5754      5753      5755      5756      5754      5753      5755      5757
      5754      5753      5755      5805      5755      5805      5808      5809
      5755      5805      5808      5810      5755      5805      5808      5811
      5756      5755      5805      5806      5756      5755      5805      5807
      5756      5755      5805      5808      5757      5755      5805      5806
      5757      5755      5805      5807      5757      5755      5805      5808
      5758      5761      5764      5765      5758      5761      5764      5766
      5758      5761      5764      5767      5759      5758      5761      5762
      5759      5758      5761      5763      5759      5758      5761      5764
      5760      5758      5761      5762      5760      5758      5761      5763
      5760      5758      5761      5764      5761      5764      5767      5768
      5761      5764      5767      5769      5761      5764      5767      5770
      5762      5761      5764      5765      5762      5761      5764      5766
      5762      5761      5764      5767      5763      5761      5764      5765
      5763      5761      5764      5766      5763      5761      5764      5767
      5764      5767      5770      5771      5764      5767      5770      5772
      5764      5767      5770      5773      5765      5764      5767      5768
      5765      5764      5767      5769      5765      5764      5767      5770
      5766      5764      5767      5768      5766      5764      5767      5769
      5766      5764      5767      5770      5767      5770      5773      5774
      5767      5770      5773      5775      5767      5770      5773      5776
      5768      5767      5770      5771      5768      5767      5770      5772
      5768      5767      5770      5773      5769      5767      5770      5771
      5769      5767      5770      5772      5769      5767      5770      5773
      5770      5773      5776      5777      5770      5773      5776      5778
      5771      5770      5773      5774      5771      5770      5773      5775
      5771      5770      5773      5776      5772      5770      5773      5774
      5772      5770      5773      5775      5772      5770      5773      5776
      5773      5776      5778      5779      5773      5776      5778      5780
      5774      5773      5776      5777      5774      5773      5776      5778
      5775      5773      5776      5777      5775      5773      5776      5778
      5776      5778      5780      5781      5776      5778      5780      5782
      5776      5778      5780      5783      5777      5776      5778      5779
      5777      5776      5778      5780      5778      5780      5783      5784
      5778      5780      5783      5785      5778      5780      5783      5786
      5779      5778      5780      5781      5779      5778      5780      5782
      5779      5778      5780      5783      5780      5783      5786      5787
      5780      5783      5786      5788      5780      5783      5786      5789
      5781      5780      5783      5784      5781      5780      5783      5785
      5781      5780      5783      5786      5782      5780      5783      5784
      5782      5780      5783      5785      5782      5780      5783      5786
      5783      5786      5789      5790      5783      5786      5789      5791
      5783      5786      5789      5792      5784      5783      5786      5787
      5784      5783      5786      5788      5784      5783      5786      5789
      5785      5783      5786      5787      5785      5783      5786      5788
      5785      5783      5786      5789      5786      5789      5792      5793
      5786      5789      5792      5794      5786      5789      5792      5795
      5787      5786      5789      5790      5787      5786      5789      5791
      5787      5786      5789      5792      5788      5786      5789      5790
      5788      5786      5789      5791      5788      5786      5789      5792
      5789      5792      5795      5796      5789      5792      5795      5797
      5789      5792      5795      5798      5790      5789      5792      5793
      5790      5789      5792      5794      5790      5789      5792      5795
      5791      5789      5792      5793      5791      5789      5792      5794
      5791      5789      5792      5795      5792      5795      5798      5799
      5792      5795      5798      5800      5792      5795      5798      5801
      5793      5792      5795      5796      5793      5792      5795      5797
      5793      5792      5795      5798      5794      5792      5795      5796
      5794      5792      5795      5797      5794      5792      5795      5798
      5795      5798      5801      5802      5795      5798      5801      5803
      5795      5798      5801      5804      5796      5795      5798      5799
      5796      5795      5798      5800      5796      5795      5798      5801
      5797      5795      5798      5799      5797      5795      5798      5800
      5797      5795      5798      5801      5799      5798      5801      5802
      5799      5798      5801      5803      5799      5798      5801      5804
      5800      5798      5801      5802      5800      5798      5801      5803
      5800      5798      5801      5804      5805      5808      5811      5812
      5805      5808      5811      5813      5805      5808      5811      5814
      5806      5805      5808      5809      5806      5805      5808      5810
      5806      5805      5808      5811      5807      5805      5808      5809
      5807      5805      5808      5810      5807      5805      5808      5811
      5808      5811      5814      5815      5808      5811      5814      5816
      5808      5811      5814      5817      5809      5808      5811      5812
      5809      5808      5811      5813      5809      5808      5811      5814
      5810      5808      5811      5812      5810      5808      5811      5813
      5810      5808      5811      5814      5811      5814      5817      5818
      5811      5814      5817      5819      5811      5814      5817      5820
      5812      5811      5814      5815      5812      5811      5814      5816
      5812      5811      5814      5817      5813      5811      5814      5815
      5813      5811      5814      5816      5813      5811      5814      5817
      5814      5817      5820      5821      5814      5817      5820      5822
      5814      5817      5820      5823      5815      5814      5817      5818
      5815      5814      5817      5819      5815      5814      5817      5820
      5816      5814      5817      5818      5816      5814      5817      5819
      5816      5814      5817      5820      5817      5820      5823      5824
      5817      5820      5823      5825      5817      5820      5823      5826
      5818      5817      5820      5821      5818      5817      5820      5822
      5818      5817      5820      5823      5819      5817      5820      5821
      5819      5817      5820      5822      5819      5817      5820      5823
      5820      5823      5826      5827      5820      5823      5826      5828
      5820      5823      5826      5829      5821      5820      5823      5824
      5821      5820      5823      5825      5821      5820      5823      5826
      5822      5820      5823      5824      5822      5820      5823      5825
      5822      5820      5823      5826      5823      5826      5829      5830
      5823      5826      5829      5831      5823      5826      5829      5832
      5824      5823      5826      5827      5824      5823      5826      5828
      5824      5823      5826      5829      5825      5823      5826      5827
      5825      5823      5826      5828      5825      5823      5826      5829
      5826      5829      5832      5833      5826      5829      5832      5834
      5826      5829      5832      5835      5827      5826      5829      5830
      5827      5826      5829      5831      5827      5826      5829      5832
      5828      5826      5829      5830      5828      5826      5829      5831
      5828      5826      5829      5832      5829      5832      5835      5836
      5829      5832      5835      5837      5829      5832      5835      5838
      5830      5829      5832      5833      5830      5829      5832      5834
      5830      5829      5832      5835      5831      5829      5832      5833
      5831      5829      5832      5834      5831      5829      5832      5835
      5832      5835      5838      5839      5832      5835      5838      5840
      5832      5835      5838      5841      5833      5832      5835      5836
      5833      5832      5835      5837      5833      5832      5835      5838
      5834      5832      5835      5836      5834      5832      5835      5837
      5834      5832      5835      5838      5835      5838      5841      5842
      5835      5838      5841      5843      5835      5838      5841      5844
      5836      5835      5838      5839      5836      5835      5838      5840
      5836      5835      5838      5841      5837      5835      5838      5839
      5837      5835      5838      5840      5837      5835      5838      5841
      5838      5841      5844      5845      5838      5841      5844      5846
      5838      5841      5844      5847      5839      5838      5841      5842
      5839      5838      5841      5843      5839      5838      5841      5844
      5840      5838      5841      5842      5840      5838      5841      5843
      5840      5838      5841      5844      5842      5841      5844      5845
      5842      5841      5844      5846      5842      5841      5844      5847
      5843      5841      5844      5845      5843      5841      5844      5846
      5843      5841      5844      5847      5848      5849      5864      5865
      5848      5849      5864      5866      5848      5849      5864      5870
      5849      5848      5852      5853      5849      5848      5852      5854
      5849      5848      5852      5855      5849      5848      5856      5857
      5849      5848      5856      5858      5849      5848      5856      5859
      5849      5848      5860      5861      5849      5848      5860      5862
      5849      5848      5860      5863      5849      5864      5870      5867
      5850      5849      5848      5852      5850      5849      5848      5856
      5850      5849      5848      5860      5850      5849      5864      5865
      5850      5849      5864      5866      5850      5849      5864      5870
      5851      5849      5848      5852      5851      5849      5848      5856
      5851      5849      5848      5860      5851      5849      5864      5865
      5851      5849      5864      5866      5851      5849      5864      5870
      5852      5848      5849      5864      5852      5848      5856      5857
      5852      5848      5856      5858      5852      5848      5856      5859
      5852      5848      5860      5861      5852      5848      5860      5862
      5852      5848      5860      5863      5853      5852      5848      5856
      5853      5852      5848      5860      5854      5852      5848      5856
      5854      5852      5848      5860      5855      5852      5848      5856
      5855      5852      5848      5860      5856      5848      5849      5864
      5856      5848      5860      5861      5856      5848      5860      5862
      5856      5848      5860      5863      5857      5856      5848      5860
      5858      5856      5848      5860      5859      5856      5848      5860
      5860      5848      5849      5864      5864      5870      5867      5868
      5864      5870      5867      5869      5864      5870      5867      5871
      5865      5864      5870      5867      5866      5864      5870      5867
      5867      5871      5872      5873      5867      5871      5872      5874
      5867      5871      5872      5875      5868      5867      5871      5872
      5869      5867      5871      5872      5870      5867      5871      5872
      5871      5872      5875      5876      5871      5872      5875      5877
      5871      5872      5875      5883      5872      5875      5877      5878
      5872      5875      5883      5884      5872      5875      5883      5885
      5872      5875      5883      5886      5873      5872      5875      5876
      5873      5872      5875      5877      5873      5872      5875      5883
      5874      5872      5875      5876      5874      5872      5875      5877
      5874      5872      5875      5883      5875      5877      5878      5879
      5875      5877      5878      5880      5875      5883      5886      5887
      5876      5875      5877      5878      5876      5875      5883      5884
      5876      5875      5883      5885      5876      5875      5883      5886
      5877      5875      5883      5884      5877      5875      5883      5885
      5877      5875      5883      5886      5877      5878      5880      5881
      5877      5878      5880      5882      5877      5878      5880      5892
      5878      5877      5875      5883      5878      5880      5892      5893
      5878      5880      5892      5894      5878      5880      5892      5895
      5879      5878      5880      5881      5879      5878      5880      5882
      5879      5878      5880      5892      5880      5892      5895      5896
      5880      5892      5895      5897      5880      5892      5895      5898
      5881      5880      5892      5893      5881      5880      5892      5894
      5881      5880      5892      5895      5882      5880      5892      5893
      5882      5880      5892      5894      5882      5880      5892      5895
      5883      5886      5887      5888      5883      5886      5887      5889
      5884      5883      5886      5887      5885      5883      5886      5887
      5886      5887      5889      5890      5886      5887      5889      5891
      5886      5887      5889      5939      5887      5889      5939      5940
      5887      5889      5939      5941      5887      5889      5939      5942
      5888      5887      5889      5890      5888      5887      5889      5891
      5888      5887      5889      5939      5889      5939      5942      5943
      5889      5939      5942      5944      5889      5939      5942      5945
      5890      5889      5939      5940      5890      5889      5939      5941
      5890      5889      5939      5942      5891      5889      5939      5940
      5891      5889      5939      5941      5891      5889      5939      5942
      5892      5895      5898      5899      5892      5895      5898      5900
      5892      5895      5898      5901      5893      5892      5895      5896
      5893      5892      5895      5897      5893      5892      5895      5898
      5894      5892      5895      5896      5894      5892      5895      5897
      5894      5892      5895      5898      5895      5898      5901      5902
      5895      5898      5901      5903      5895      5898      5901      5904
      5896      5895      5898      5899      5896      5895      5898      5900
      5896      5895      5898      5901      5897      5895      5898      5899
      5897      5895      5898      5900      5897      5895      5898      5901
      5898      5901      5904      5905      5898      5901      5904      5906
      5898      5901      5904      5907      5899      5898      5901      5902
      5899      5898      5901      5903      5899      5898      5901      5904
      5900      5898      5901      5902      5900      5898      5901      5903
      5900      5898      5901      5904      5901      5904      5907      5908
      5901      5904      5907      5909      5901      5904      5907      5910
      5902      5901      5904      5905      5902      5901      5904      5906
      5902      5901      5904      5907      5903      5901      5904      5905
      5903      5901      5904      5906      5903      5901      5904      5907
      5904      5907      5910      5911      5904      5907      5910      5912
      5905      5904      5907      5908      5905      5904      5907      5909
      5905      5904      5907      5910      5906      5904      5907      5908
      5906      5904      5907      5909      5906      5904      5907      5910
      5907      5910      5912      5913      5907      5910      5912      5914
      5908      5907      5910      5911      5908      5907      5910      5912
      5909      5907      5910      5911      5909      5907      5910      5912
      5910      5912      5914      5915      5910      5912      5914      5916
      5910      5912      5914      5917      5911      5910      5912      5913
      5911      5910      5912      5914      5912      5914      5917      5918
      5912      5914      5917      5919      5912      5914      5917      5920
      5913      5912      5914      5915      5913      5912      5914      5916
      5913      5912      5914      5917      5914      5917      5920      5921
      5914      5917      5920      5922      5914      5917      5920      5923
      5915      5914      5917      5918      5915      5914      5917      5919
      5915      5914      5917      5920      5916      5914      5917      5918
      5916      5914      5917      5919      5916      5914      5917      5920
      5917      5920      5923      5924      5917      5920      5923      5925
      5917      5920      5923      5926      5918      5917      5920      5921
      5918      5917      5920      5922      5918      5917      5920      5923
      5919      5917      5920      5921      5919      5917      5920      5922
      5919      5917      5920      5923      5920      5923      5926      5927
      5920      5923      5926      5928      5920      5923      5926      5929
      5921      5920      5923      5924      5921      5920      5923      5925
      5921      5920      5923      5926      5922      5920      5923      5924
      5922      5920      5923      5925      5922      5920      5923      5926
      5923      5926      5929      5930      5923      5926      5929      5931
      5923      5926      5929      5932      5924      5923      5926      5927
      5924      5923      5926      5928      5924      5923      5926      5929
      5925      5923      5926      5927      5925      5923      5926      5928
      5925      5923      5926      5929      5926      5929      5932      5933
      5926      5929      5932      5934      5926      5929      5932      5935
      5927      5926      5929      5930      5927      5926      5929      5931
      5927      5926      5929      5932      5928      5926      5929      5930
      5928      5926      5929      5931      5928      5926      5929      5932
      5929      5932      5935      5936      5929      5932      5935      5937
      5929      5932      5935      5938      5930      5929      5932      5933
      5930      5929      5932      5934      5930      5929      5932      5935
      5931      5929      5932      5933      5931      5929      5932      5934
      5931      5929      5932      5935      5933      5932      5935      5936
      5933      5932      5935      5937      5933      5932      5935      5938
      5934      5932      5935      5936      5934      5932      5935      5937
      5934      5932      5935      5938      5939      5942      5945      5946
      5939      5942      5945      5947      5939      5942      5945      5948
      5940      5939      5942      5943      5940      5939      5942      5944
      5940      5939      5942      5945      5941      5939      5942      5943
      5941      5939      5942      5944      5941      5939      5942      5945
      5942      5945      5948      5949      5942      5945      5948      5950
      5942      5945      5948      5951      5943      5942      5945      5946
      5943      5942      5945      5947      5943      5942      5945      5948
      5944      5942      5945      5946      5944      5942      5945      5947
      5944      5942      5945      5948      5945      5948      5951      5952
      5945      5948      5951      5953      5945      5948      5951      5954
      5946      5945      5948      5949      5946      5945      5948      5950
      5946      5945      5948      5951      5947      5945      5948      5949
      5947      5945      5948      5950      5947      5945      5948      5951
      5948      5951      5954      5955      5948      5951      5954      5956
      5948      5951      5954      5957      5949      5948      5951      5952
      5949      5948      5951      5953      5949      5948      5951      5954
      5950      5948      5951      5952      5950      5948      5951      5953
      5950      5948      5951      5954      5951      5954      5957      5958
      5951      5954      5957      5959      5951      5954      5957      5960
      5952      5951      5954      5955      5952      5951      5954      5956
      5952      5951      5954      5957      5953      5951      5954      5955
      5953      5951      5954      5956      5953      5951      5954      5957
      5954      5957      5960      5961      5954      5957      5960      5962
      5954      5957      5960      5963      5955      5954      5957      5958
      5955      5954      5957      5959      5955      5954      5957      5960
      5956      5954      5957      5958      5956      5954      5957      5959
      5956      5954      5957      5960      5957      5960      5963      5964
      5957      5960      5963      5965      5957      5960      5963      5966
      5958      5957      5960      5961      5958      5957      5960      5962
      5958      5957      5960      5963      5959      5957      5960      5961
      5959      5957      5960      5962      5959      5957      5960      5963
      5960      5963      5966      5967      5960      5963      5966      5968
      5960      5963      5966      5969      5961      5960      5963      5964
      5961      5960      5963      5965      5961      5960      5963      5966
      5962      5960      5963      5964      5962      5960      5963      5965
      5962      5960      5963      5966      5963      5966      5969      5970
      5963      5966      5969      5971      5963      5966      5969      5972
      5964      5963      5966      5967      5964      5963      5966      5968
      5964      5963      5966      5969      5965      5963      5966      5967
      5965      5963      5966      5968      5965      5963      5966      5969
      5966      5969      5972      5973      5966      5969      5972      5974
      5966      5969      5972      5975      5967      5966      5969      5970
      5967      5966      5969      5971      5967      5966      5969      5972
      5968      5966      5969      5970      5968      5966      5969      5971
      5968      5966      5969      5972      5969      5972      5975      5976
      5969      5972      5975      5977      5969      5972      5975      5978
      5970      5969      5972      5973      5970      5969      5972      5974
      5970      5969      5972      5975      5971      5969      5972      5973
      5971      5969      5972      5974      5971      5969      5972      5975
      5972      5975      5978      5979      5972      5975      5978      5980
      5972      5975      5978      5981      5973      5972      5975      5976
      5973      5972      5975      5977      5973      5972      5975      5978
      5974      5972      5975      5976      5974      5972      5975      5977
      5974      5972      5975      5978      5976      5975      5978      5979
      5976      5975      5978      5980      5976      5975      5978      5981
      5977      5975      5978      5979      5977      5975      5978      5980
      5977      5975      5978      5981      5982      5983      5998      5999
      5982      5983      5998      6000      5982      5983      5998      6004
      5983      5982      5986      5987      5983      5982      5986      5988
      5983      5982      5986      5989      5983      5982      5990      5991
      5983      5982      5990      5992      5983      5982      5990      5993
      5983      5982      5994      5995      5983      5982      5994      5996
      5983      5982      5994      5997      5983      5998      6004      6001
      5984      5983      5982      5986      5984      5983      5982      5990
      5984      5983      5982      5994      5984      5983      5998      5999
      5984      5983      5998      6000      5984      5983      5998      6004
      5985      5983      5982      5986      5985      5983      5982      5990
      5985      5983      5982      5994      5985      5983      5998      5999
      5985      5983      5998      6000      5985      5983      5998      6004
      5986      5982      5983      5998      5986      5982      5990      5991
      5986      5982      5990      5992      5986      5982      5990      5993
      5986      5982      5994      5995      5986      5982      5994      5996
      5986      5982      5994      5997      5987      5986      5982      5990
      5987      5986      5982      5994      5988      5986      5982      5990
      5988      5986      5982      5994      5989      5986      5982      5990
      5989      5986      5982      5994      5990      5982      5983      5998
      5990      5982      5994      5995      5990      5982      5994      5996
      5990      5982      5994      5997      5991      5990      5982      5994
      5992      5990      5982      5994      5993      5990      5982      5994
      5994      5982      5983      5998      5998      6004      6001      6002
      5998      6004      6001      6003      5998      6004      6001      6005
      5999      5998      6004      6001      6000      5998      6004      6001
      6001      6005      6006      6007      6001      6005      6006      6008
      6001      6005      6006      6009      6002      6001      6005      6006
      6003      6001      6005      6006      6004      6001      6005      6006
      6005      6006      6009      6010      6005      6006      6009      6011
      6005      6006      6009      6017      6006      6009      6011      6012
      6006      6009      6017      6018      6006      6009      6017      6019
      6006      6009      6017      6020      6007      6006      6009      6010
      6007      6006      6009      6011      6007      6006      6009      6017
      6008      6006      6009      6010      6008      6006      6009      6011
      6008      6006      6009      6017      6009      6011      6012      6013
      6009      6011      6012      6014      6009      6017      6020      6021
      6010      6009      6011      6012      6010      6009      6017      6018
      6010      6009      6017      6019      6010      6009      6017      6020
      6011      6009      6017      6018      6011      6009      6017      6019
      6011      6009      6017      6020      6011      6012      6014      6015
      6011      6012      6014      6016      6011      6012      6014      6026
      6012      6011      6009      6017      6012      6014      6026      6027
      6012      6014      6026      6028      6012      6014      6026      6029
      6013      6012      6014      6015      6013      6012      6014      6016
      6013      6012      6014      6026      6014      6026      6029      6030
      6014      6026      6029      6031      6014      6026      6029      6032
      6015      6014      6026      6027      6015      6014      6026      6028
      6015      6014      6026      6029      6016      6014      6026      6027
      6016      6014      6026      6028      6016      6014      6026      6029
      6017      6020      6021      6022      6017      6020      6021      6023
      6018      6017      6020      6021      6019      6017      6020      6021
      6020      6021      6023      6024      6020      6021      6023      6025
      6020      6021      6023      6073      6021      6023      6073      6074
      6021      6023      6073      6075      6021      6023      6073      6076
      6022      6021      6023      6024      6022      6021      6023      6025
      6022      6021      6023      6073      6023      6073      6076      6077
      6023      6073      6076      6078      6023      6073      6076      6079
      6024      6023      6073      6074      6024      6023      6073      6075
      6024      6023      6073      6076      6025      6023      6073      6074
      6025      6023      6073      6075      6025      6023      6073      6076
      6026      6029      6032      6033      6026      6029      6032      6034
      6026      6029      6032      6035      6027      6026      6029      6030
      6027      6026      6029      6031      6027      6026      6029      6032
      6028      6026      6029      6030      6028      6026      6029      6031
      6028      6026      6029      6032      6029      6032      6035      6036
      6029      6032      6035      6037      6029      6032      6035      6038
      6030      6029      6032      6033      6030      6029      6032      6034
      6030      6029      6032      6035      6031      6029      6032      6033
      6031      6029      6032      6034      6031      6029      6032      6035
      6032      6035      6038      6039      6032      6035      6038      6040
      6032      6035      6038      6041      6033      6032      6035      6036
      6033      6032      6035      6037      6033      6032      6035      6038
      6034      6032      6035      6036      6034      6032      6035      6037
      6034      6032      6035      6038      6035      6038      6041      6042
      6035      6038      6041      6043      6035      6038      6041      6044
      6036      6035      6038      6039      6036      6035      6038      6040
      6036      6035      6038      6041      6037      6035      6038      6039
      6037      6035      6038      6040      6037      6035      6038      6041
      6038      6041      6044      6045      6038      6041      6044      6046
      6039      6038      6041      6042      6039      6038      6041      6043
      6039      6038      6041      6044      6040      6038      6041      6042
      6040      6038      6041      6043      6040      6038      6041      6044
      6041      6044      6046      6047      6041      6044      6046      6048
      6042      6041      6044      6045      6042      6041      6044      6046
      6043      6041      6044      6045      6043      6041      6044      6046
      6044      6046      6048      6049      6044      6046      6048      6050
      6044      6046      6048      6051      6045      6044      6046      6047
      6045      6044      6046      6048      6046      6048      6051      6052
      6046      6048      6051      6053      6046      6048      6051      6054
      6047      6046      6048      6049      6047      6046      6048      6050
      6047      6046      6048      6051      6048      6051      6054      6055
      6048      6051      6054      6056      6048      6051      6054      6057
      6049      6048      6051      6052      6049      6048      6051      6053
      6049      6048      6051      6054      6050      6048      6051      6052
      6050      6048      6051      6053      6050      6048      6051      6054
      6051      6054      6057      6058      6051      6054      6057      6059
      6051      6054      6057      6060      6052      6051      6054      6055
      6052      6051      6054      6056      6052      6051      6054      6057
      6053      6051      6054      6055      6053      6051      6054      6056
      6053      6051      6054      6057      6054      6057      6060      6061
      6054      6057      6060      6062      6054      6057      6060      6063
      6055      6054      6057      6058      6055      6054      6057      6059
      6055      6054      6057      6060      6056      6054      6057      6058
      6056      6054      6057      6059      6056      6054      6057      6060
      6057      6060      6063      6064      6057      6060      6063      6065
      6057      6060      6063      6066      6058      6057      6060      6061
      6058      6057      6060      6062      6058      6057      6060      6063
      6059      6057      6060      6061      6059      6057      6060      6062
      6059      6057      6060      6063      6060      6063      6066      6067
      6060      6063      6066      6068      6060      6063      6066      6069
      6061      6060      6063      6064      6061      6060      6063      6065
      6061      6060      6063      6066      6062      6060      6063      6064
      6062      6060      6063      6065      6062      6060      6063      6066
      6063      6066      6069      6070      6063      6066      6069      6071
      6063      6066      6069      6072      6064      6063      6066      6067
      6064      6063      6066      6068      6064      6063      6066      6069
      6065      6063      6066      6067      6065      6063      6066      6068
      6065      6063      6066      6069      6067      6066      6069      6070
      6067      6066      6069      6071      6067      6066      6069      6072
      6068      6066      6069      6070      6068      6066      6069      6071
      6068      6066      6069      6072      6073      6076      6079      6080
      6073      6076      6079      6081      6073      6076      6079      6082
      6074      6073      6076      6077      6074      6073      6076      6078
      6074      6073      6076      6079      6075      6073      6076      6077
      6075      6073      6076      6078      6075      6073      6076      6079
      6076      6079      6082      6083      6076      6079      6082      6084
      6076      6079      6082      6085      6077      6076      6079      6080
      6077      6076      6079      6081      6077      6076      6079      6082
      6078      6076      6079      6080      6078      6076      6079      6081
      6078      6076      6079      6082      6079      6082      6085      6086
      6079      6082      6085      6087      6079      6082      6085      6088
      6080      6079      6082      6083      6080      6079      6082      6084
      6080      6079      6082      6085      6081      6079      6082      6083
      6081      6079      6082      6084      6081      6079      6082      6085
      6082      6085      6088      6089      6082      6085      6088      6090
      6082      6085      6088      6091      6083      6082      6085      6086
      6083      6082      6085      6087      6083      6082      6085      6088
      6084      6082      6085      6086      6084      6082      6085      6087
      6084      6082      6085      6088      6085      6088      6091      6092
      6085      6088      6091      6093      6085      6088      6091      6094
      6086      6085      6088      6089      6086      6085      6088      6090
      6086      6085      6088      6091      6087      6085      6088      6089
      6087      6085      6088      6090      6087      6085      6088      6091
      6088      6091      6094      6095      6088      6091      6094      6096
      6088      6091      6094      6097      6089      6088      6091      6092
      6089      6088      6091      6093      6089      6088      6091      6094
      6090      6088      6091      6092      6090      6088      6091      6093
      6090      6088      6091      6094      6091      6094      6097      6098
      6091      6094      6097      6099      6091      6094      6097      6100
      6092      6091      6094      6095      6092      6091      6094      6096
      6092      6091      6094      6097      6093      6091      6094      6095
      6093      6091      6094      6096      6093      6091      6094      6097
      6094      6097      6100      6101      6094      6097      6100      6102
      6094      6097      6100      6103      6095      6094      6097      6098
      6095      6094      6097      6099      6095      6094      6097      6100
      6096      6094      6097      6098      6096      6094      6097      6099
      6096      6094      6097      6100      6097      6100      6103      6104
      6097      6100      6103      6105      6097      6100      6103      6106
      6098      6097      6100      6101      6098      6097      6100      6102
      6098      6097      6100      6103      6099      6097      6100      6101
      6099      6097      6100      6102      6099      6097      6100      6103
      6100      6103      6106      6107      6100      6103      6106      6108
      6100      6103      6106      6109      6101      6100      6103      6104
      6101      6100      6103      6105      6101      6100      6103      6106
      6102      6100      6103      6104      6102      6100      6103      6105
      6102      6100      6103      6106      6103      6106      6109      6110
      6103      6106      6109      6111      6103      6106      6109      6112
      6104      6103      6106      6107      6104      6103      6106      6108
      6104      6103      6106      6109      6105      6103      6106      6107
      6105      6103      6106      6108      6105      6103      6106      6109
      6106      6109      6112      6113      6106      6109      6112      6114
      6106      6109      6112      6115      6107      6106      6109      6110
      6107      6106      6109      6111      6107      6106      6109      6112
      6108      6106      6109      6110      6108      6106      6109      6111
      6108      6106      6109      6112      6110      6109      6112      6113
      6110      6109      6112      6114      6110      6109      6112      6115
      6111      6109      6112      6113      6111      6109      6112      6114
      6111      6109      6112      6115      6116      6117      6132      6133
      6116      6117      6132      6134      6116      6117      6132      6138
      6117      6116      6120      6121      6117      6116      6120      6122
      6117      6116      6120      6123      6117      6116      6124      6125
      6117      6116      6124      6126      6117      6116      6124      6127
      6117      6116      6128      6129      6117      6116      6128      6130
      6117      6116      6128      6131      6117      6132      6138      6135
      6118      6117      6116      6120      6118      6117      6116      6124
      6118      6117      6116      6128      6118      6117      6132      6133
      6118      6117      6132      6134      6118      6117      6132      6138
      6119      6117      6116      6120      6119      6117      6116      6124
      6119      6117      6116      6128      6119      6117      6132      6133
      6119      6117      6132      6134      6119      6117      6132      6138
      6120      6116      6117      6132      6120      6116      6124      6125
      6120      6116      6124      6126      6120      6116      6124      6127
      6120      6116      6128      6129      6120      6116      6128      6130
      6120      6116      6128      6131      6121      6120      6116      6124
      6121      6120      6116      6128      6122      6120      6116      6124
      6122      6120      6116      6128      6123      6120      6116      6124
      6123      6120      6116      6128      6124      6116      6117      6132
      6124      6116      6128      6129      6124      6116      6128      6130
      6124      6116      6128      6131      6125      6124      6116      6128
      6126      6124      6116      6128      6127      6124      6116      6128
      6128      6116      6117      6132      6132      6138      6135      6136
      6132      6138      6135      6137      6132      6138      6135      6139
      6133      6132      6138      6135      6134      6132      6138      6135
      6135      6139      6140      6141      6135      6139      6140      6142
      6135      6139      6140      6143      6136      6135      6139      6140
      6137      6135      6139      6140      6138      6135      6139      6140
      6139      6140      6143      6144      6139      6140      6143      6145
      6139      6140      6143      6151      6140      6143      6145      6146
      6140      6143      6151      6152      6140      6143      6151      6153
      6140      6143      6151      6154      6141      6140      6143      6144
      6141      6140      6143      6145      6141      6140      6143      6151
      6142      6140      6143      6144      6142      6140      6143      6145
      6142      6140      6143      6151      6143      6145      6146      6147
      6143      6145      6146      6148      6143      6151      6154      6155
      6144      6143      6145      6146      6144      6143      6151      6152
      6144      6143      6151      6153      6144      6143      6151      6154
      6145      6143      6151      6152      6145      6143      6151      6153
      6145      6143      6151      6154      6145      6146      6148      6149
      6145      6146      6148      6150      6145      6146      6148      6160
      6146      6145      6143      6151      6146      6148      6160      6161
      6146      6148      6160      6162      6146      6148      6160      6163
      6147      6146      6148      6149      6147      6146      6148      6150
      6147      6146      6148      6160      6148      6160      6163      6164
      6148      6160      6163      6165      6148      6160      6163      6166
      6149      6148      6160      6161      6149      6148      6160      6162
      6149      6148      6160      6163      6150      6148      6160      6161
      6150      6148      6160      6162      6150      6148      6160      6163
      6151      6154      6155      6156      6151      6154      6155      6157
      6152      6151      6154      6155      6153      6151      6154      6155
      6154      6155      6157      6158      6154      6155      6157      6159
      6154      6155      6157      6207      6155      6157      6207      6208
      6155      6157      6207      6209      6155      6157      6207      6210
      6156      6155      6157      6158      6156      6155      6157      6159
      6156      6155      6157      6207      6157      6207      6210      6211
      6157      6207      6210      6212      6157      6207      6210      6213
      6158      6157      6207      6208      6158      6157      6207      6209
      6158      6157      6207      6210      6159      6157      6207      6208
      6159      6157      6207      6209      6159      6157      6207      6210
      6160      6163      6166      6167      6160      6163      6166      6168
      6160      6163      6166      6169      6161      6160      6163      6164
      6161      6160      6163      6165      6161      6160      6163      6166
      6162      6160      6163      6164      6162      6160      6163      6165
      6162      6160      6163      6166      6163      6166      6169      6170
      6163      6166      6169      6171      6163      6166      6169      6172
      6164      6163      6166      6167      6164      6163      6166      6168
      6164      6163      6166      6169      6165      6163      6166      6167
      6165      6163      6166      6168      6165      6163      6166      6169
      6166      6169      6172      6173      6166      6169      6172      6174
      6166      6169      6172      6175      6167      6166      6169      6170
      6167      6166      6169      6171      6167      6166      6169      6172
      6168      6166      6169      6170      6168      6166      6169      6171
      6168      6166      6169      6172      6169      6172      6175      6176
      6169      6172      6175      6177      6169      6172      6175      6178
      6170      6169      6172      6173      6170      6169      6172      6174
      6170      6169      6172      6175      6171      6169      6172      6173
      6171      6169      6172      6174      6171      6169      6172      6175
      6172      6175      6178      6179      6172      6175      6178      6180
      6173      6172      6175      6176      6173      6172      6175      6177
      6173      6172      6175      6178      6174      6172      6175      6176
      6174      6172      6175      6177      6174      6172      6175      6178
      6175      6178      6180      6181      6175      6178      6180      6182
      6176      6175      6178      6179      6176      6175      6178      6180
      6177      6175      6178      6179      6177      6175      6178      6180
      6178      6180      6182      6183      6178      6180      6182      6184
      6178      6180      6182      6185      6179      6178      6180      6181
      6179      6178      6180      6182      6180      6182      6185      6186
      6180      6182      6185      6187      6180      6182      6185      6188
      6181      6180      6182      6183      6181      6180      6182      6184
      6181      6180      6182      6185      6182      6185      6188      6189
      6182      6185      6188      6190      6182      6185      6188      6191
      6183      6182      6185      6186      6183      6182      6185      6187
      6183      6182      6185      6188      6184      6182      6185      6186
      6184      6182      6185      6187      6184      6182      6185      6188
      6185      6188      6191      6192      6185      6188      6191      6193
      6185      6188      6191      6194      6186      6185      6188      6189
      6186      6185      6188      6190      6186      6185      6188      6191
      6187      6185      6188      6189      6187      6185      6188      6190
      6187      6185      6188      6191      6188      6191      6194      6195
      6188      6191      6194      6196      6188      6191      6194      6197
      6189      6188      6191      6192      6189      6188      6191      6193
      6189      6188      6191      6194      6190      6188      6191      6192
      6190      6188      6191      6193      6190      6188      6191      6194
      6191      6194      6197      6198      6191      6194      6197      6199
      6191      6194      6197      6200      6192      6191      6194      6195
      6192      6191      6194      6196      6192      6191      6194      6197
      6193      6191      6194      6195      6193      6191      6194      6196
      6193      6191      6194      6197      6194      6197      6200      6201
      6194      6197      6200      6202      6194      6197      6200      6203
      6195      6194      6197      6198      6195      6194      6197      6199
      6195      6194      6197      6200      6196      6194      6197      6198
      6196      6194      6197      6199      6196      6194      6197      6200
      6197      6200      6203      6204      6197      6200      6203      6205
      6197      6200      6203      6206      6198      6197      6200      6201
      6198      6197      6200      6202      6198      6197      6200      6203
      6199      6197      6200      6201      6199      6197      6200      6202
      6199      6197      6200      6203      6201      6200      6203      6204
      6201      6200      6203      6205      6201      6200      6203      6206
      6202      6200      6203      6204      6202      6200      6203      6205
      6202      6200      6203      6206      6207      6210      6213      6214
      6207      6210      6213      6215      6207      6210      6213      6216
      6208      6207      6210      6211      6208      6207      6210      6212
      6208      6207      6210      6213      6209      6207      6210      6211
      6209      6207      6210      6212      6209      6207      6210      6213
      6210      6213      6216      6217      6210      6213      6216      6218
      6210      6213      6216      6219      6211      6210      6213      6214
      6211      6210      6213      6215      6211      6210      6213      6216
      6212      6210      6213      6214      6212      6210      6213      6215
      6212      6210      6213      6216      6213      6216      6219      6220
      6213      6216      6219      6221      6213      6216      6219      6222
      6214      6213      6216      6217      6214      6213      6216      6218
      6214      6213      6216      6219      6215      6213      6216      6217
      6215      6213      6216      6218      6215      6213      6216      6219
      6216      6219      6222      6223      6216      6219      6222      6224
      6216      6219      6222      6225      6217      6216      6219      6220
      6217      6216      6219      6221      6217      6216      6219      6222
      6218      6216      6219      6220      6218      6216      6219      6221
      6218      6216      6219      6222      6219      6222      6225      6226
      6219      6222      6225      6227      6219      6222      6225      6228
      6220      6219      6222      6223      6220      6219      6222      6224
      6220      6219      6222      6225      6221      6219      6222      6223
      6221      6219      6222      6224      6221      6219      6222      6225
      6222      6225      6228      6229      6222      6225      6228      6230
      6222      6225      6228      6231      6223      6222      6225      6226
      6223      6222      6225      6227      6223      6222      6225      6228
      6224      6222      6225      6226      6224      6222      6225      6227
      6224      6222      6225      6228      6225      6228      6231      6232
      6225      6228      6231      6233      6225      6228      6231      6234
      6226      6225      6228      6229      6226      6225      6228      6230
      6226      6225      6228      6231      6227      6225      6228      6229
      6227      6225      6228      6230      6227      6225      6228      6231
      6228      6231      6234      6235      6228      6231      6234      6236
      6228      6231      6234      6237      6229      6228      6231      6232
      6229      6228      6231      6233      6229      6228      6231      6234
      6230      6228      6231      6232      6230      6228      6231      6233
      6230      6228      6231      6234      6231      6234      6237      6238
      6231      6234      6237      6239      6231      6234      6237      6240
      6232      6231      6234      6235      6232      6231      6234      6236
      6232      6231      6234      6237      6233      6231      6234      6235
      6233      6231      6234      6236      6233      6231      6234      6237
      6234      6237      6240      6241      6234      6237      6240      6242
      6234      6237      6240      6243      6235      6234      6237      6238
      6235      6234      6237      6239      6235      6234      6237      6240
      6236      6234      6237      6238      6236      6234      6237      6239
      6236      6234      6237      6240      6237      6240      6243      6244
      6237      6240      6243      6245      6237      6240      6243      6246
      6238      6237      6240      6241      6238      6237      6240      6242
      6238      6237      6240      6243      6239      6237      6240      6241
      6239      6237      6240      6242      6239      6237      6240      6243
      6240      6243      6246      6247      6240      6243      6246      6248
      6240      6243      6246      6249      6241      6240      6243      6244
      6241      6240      6243      6245      6241      6240      6243      6246
      6242      6240      6243      6244      6242      6240      6243      6245
      6242      6240      6243      6246      6244      6243      6246      6247
      6244      6243      6246      6248      6244      6243      6246      6249
      6245      6243      6246      6247      6245      6243      6246      6248
      6245      6243      6246      6249      6250      6251      6266      6267
      6250      6251      6266      6268      6250      6251      6266      6272
      6251      6250      6254      6255      6251      6250      6254      6256
      6251      6250      6254      6257      6251      6250      6258      6259
      6251      6250      6258      6260      6251      6250      6258      6261
      6251      6250      6262      6263      6251      6250      6262      6264
      6251      6250      6262      6265      6251      6266      6272      6269
      6252      6251      6250      6254      6252      6251      6250      6258
      6252      6251      6250      6262      6252      6251      6266      6267
      6252      6251      6266      6268      6252      6251      6266      6272
      6253      6251      6250      6254      6253      6251      6250      6258
      6253      6251      6250      6262      6253      6251      6266      6267
      6253      6251      6266      6268      6253      6251      6266      6272
      6254      6250      6251      6266      6254      6250      6258      6259
      6254      6250      6258      6260      6254      6250      6258      6261
      6254      6250      6262      6263      6254      6250      6262      6264
      6254      6250      6262      6265      6255      6254      6250      6258
      6255      6254      6250      6262      6256      6254      6250      6258
      6256      6254      6250      6262      6257      6254      6250      6258
      6257      6254      6250      6262      6258      6250      6251      6266
      6258      6250      6262      6263      6258      6250      6262      6264
      6258      6250      6262      6265      6259      6258      6250      6262
      6260      6258      6250      6262      6261      6258      6250      6262
      6262      6250      6251      6266      6266      6272      6269      6270
      6266      6272      6269      6271      6266      6272      6269      6273
      6267      6266      6272      6269      6268      6266      6272      6269
      6269      6273      6274      6275      6269      6273      6274      6276
      6269      6273      6274      6277      6270      6269      6273      6274
      6271      6269      6273      6274      6272      6269      6273      6274
      6273      6274      6277      6278      6273      6274      6277      6279
      6273      6274      6277      6285      6274      6277      6279      6280
      6274      6277      6285      6286      6274      6277      6285      6287
      6274      6277      6285      6288      6275      6274      6277      6278
      6275      6274      6277      6279      6275      6274      6277      6285
      6276      6274      6277      6278      6276      6274      6277      6279
      6276      6274      6277      6285      6277      6279      6280      6281
      6277      6279      6280      6282      6277      6285      6288      6289
      6278      6277      6279      6280      6278      6277      6285      6286
      6278      6277      6285      6287      6278      6277      6285      6288
      6279      6277      6285      6286      6279      6277      6285      6287
      6279      6277      6285      6288      6279      6280      6282      6283
      6279      6280      6282      6284      6279      6280      6282      6294
      6280      6279      6277      6285      6280      6282      6294      6295
      6280      6282      6294      6296      6280      6282      6294      6297
      6281      6280      6282      6283      6281      6280      6282      6284
      6281      6280      6282      6294      6282      6294      6297      6298
      6282      6294      6297      6299      6282      6294      6297      6300
      6283      6282      6294      6295      6283      6282      6294      6296
      6283      6282      6294      6297      6284      6282      6294      6295
      6284      6282      6294      6296      6284      6282      6294      6297
      6285      6288      6289      6290      6285      6288      6289      6291
      6286      6285      6288      6289      6287      6285      6288      6289
      6288      6289      6291      6292      6288      6289      6291      6293
      6288      6289      6291      6341      6289      6291      6341      6342
      6289      6291      6341      6343      6289      6291      6341      6344
      6290      6289      6291      6292      6290      6289      6291      6293
      6290      6289      6291      6341      6291      6341      6344      6345
      6291      6341      6344      6346      6291      6341      6344      6347
      6292      6291      6341      6342      6292      6291      6341      6343
      6292      6291      6341      6344      6293      6291      6341      6342
      6293      6291      6341      6343      6293      6291      6341      6344
      6294      6297      6300      6301      6294      6297      6300      6302
      6294      6297      6300      6303      6295      6294      6297      6298
      6295      6294      6297      6299      6295      6294      6297      6300
      6296      6294      6297      6298      6296      6294      6297      6299
      6296      6294      6297      6300      6297      6300      6303      6304
      6297      6300      6303      6305      6297      6300      6303      6306
      6298      6297      6300      6301      6298      6297      6300      6302
      6298      6297      6300      6303      6299      6297      6300      6301
      6299      6297      6300      6302      6299      6297      6300      6303
      6300      6303      6306      6307      6300      6303      6306      6308
      6300      6303      6306      6309      6301      6300      6303      6304
      6301      6300      6303      6305      6301      6300      6303      6306
      6302      6300      6303      6304      6302      6300      6303      6305
      6302      6300      6303      6306      6303      6306      6309      6310
      6303      6306      6309      6311      6303      6306      6309      6312
      6304      6303      6306      6307      6304      6303      6306      6308
      6304      6303      6306      6309      6305      6303      6306      6307
      6305      6303      6306      6308      6305      6303      6306      6309
      6306      6309      6312      6313      6306      6309      6312      6314
      6307      6306      6309      6310      6307      6306      6309      6311
      6307      6306      6309      6312      6308      6306      6309      6310
      6308      6306      6309      6311      6308      6306      6309      6312
      6309      6312      6314      6315      6309      6312      6314      6316
      6310      6309      6312      6313      6310      6309      6312      6314
      6311      6309      6312      6313      6311      6309      6312      6314
      6312      6314      6316      6317      6312      6314      6316      6318
      6312      6314      6316      6319      6313      6312      6314      6315
      6313      6312      6314      6316      6314      6316      6319      6320
      6314      6316      6319      6321      6314      6316      6319      6322
      6315      6314      6316      6317      6315      6314      6316      6318
      6315      6314      6316      6319      6316      6319      6322      6323
      6316      6319      6322      6324      6316      6319      6322      6325
      6317      6316      6319      6320      6317      6316      6319      6321
      6317      6316      6319      6322      6318      6316      6319      6320
      6318      6316      6319      6321      6318      6316      6319      6322
      6319      6322      6325      6326      6319      6322      6325      6327
      6319      6322      6325      6328      6320      6319      6322      6323
      6320      6319      6322      6324      6320      6319      6322      6325
      6321      6319      6322      6323      6321      6319      6322      6324
      6321      6319      6322      6325      6322      6325      6328      6329
      6322      6325      6328      6330      6322      6325      6328      6331
      6323      6322      6325      6326      6323      6322      6325      6327
      6323      6322      6325      6328      6324      6322      6325      6326
      6324      6322      6325      6327      6324      6322      6325      6328
      6325      6328      6331      6332      6325      6328      6331      6333
      6325      6328      6331      6334      6326      6325      6328      6329
      6326      6325      6328      6330      6326      6325      6328      6331
      6327      6325      6328      6329      6327      6325      6328      6330
      6327      6325      6328      6331      6328      6331      6334      6335
      6328      6331      6334      6336      6328      6331      6334      6337
      6329      6328      6331      6332      6329      6328      6331      6333
      6329      6328      6331      6334      6330      6328      6331      6332
      6330      6328      6331      6333      6330      6328      6331      6334
      6331      6334      6337      6338      6331      6334      6337      6339
      6331      6334      6337      6340      6332      6331      6334      6335
      6332      6331      6334      6336      6332      6331      6334      6337
      6333      6331      6334      6335      6333      6331      6334      6336
      6333      6331      6334      6337      6335      6334      6337      6338
      6335      6334      6337      6339      6335      6334      6337      6340
      6336      6334      6337      6338      6336      6334      6337      6339
      6336      6334      6337      6340      6341      6344      6347      6348
      6341      6344      6347      6349      6341      6344      6347      6350
      6342      6341      6344      6345      6342      6341      6344      6346
      6342      6341      6344      6347      6343      6341      6344      6345
      6343      6341      6344      6346      6343      6341      6344      6347
      6344      6347      6350      6351      6344      6347      6350      6352
      6344      6347      6350      6353      6345      6344      6347      6348
      6345      6344      6347      6349      6345      6344      6347      6350
      6346      6344      6347      6348      6346      6344      6347      6349
      6346      6344      6347      6350      6347      6350      6353      6354
      6347      6350      6353      6355      6347      6350      6353      6356
      6348      6347      6350      6351      6348      6347      6350      6352
      6348      6347      6350      6353      6349      6347      6350      6351
      6349      6347      6350      6352      6349      6347      6350      6353
      6350      6353      6356      6357      6350      6353      6356      6358
      6350      6353      6356      6359      6351      6350      6353      6354
      6351      6350      6353      6355      6351      6350      6353      6356
      6352      6350      6353      6354      6352      6350      6353      6355
      6352      6350      6353      6356      6353      6356      6359      6360
      6353      6356      6359      6361      6353      6356      6359      6362
      6354      6353      6356      6357      6354      6353      6356      6358
      6354      6353      6356      6359      6355      6353      6356      6357
      6355      6353      6356      6358      6355      6353      6356      6359
      6356      6359      6362      6363      6356      6359      6362      6364
      6356      6359      6362      6365      6357      6356      6359      6360
      6357      6356      6359      6361      6357      6356      6359      6362
      6358      6356      6359      6360      6358      6356      6359      6361
      6358      6356      6359      6362      6359      6362      6365      6366
      6359      6362      6365      6367      6359      6362      6365      6368
      6360      6359      6362      6363      6360      6359      6362      6364
      6360      6359      6362      6365      6361      6359      6362      6363
      6361      6359      6362      6364      6361      6359      6362      6365
      6362      6365      6368      6369      6362      6365      6368      6370
      6362      6365      6368      6371      6363      6362      6365      6366
      6363      6362      6365      6367      6363      6362      6365      6368
      6364      6362      6365      6366      6364      6362      6365      6367
      6364      6362      6365      6368      6365      6368      6371      6372
      6365      6368      6371      6373      6365      6368      6371      6374
      6366      6365      6368      6369      6366      6365      6368      6370
      6366      6365      6368      6371      6367      6365      6368      6369
      6367      6365      6368      6370      6367      6365      6368      6371
      6368      6371      6374      6375      6368      6371      6374      6376
      6368      6371      6374      6377      6369      6368      6371      6372
      6369      6368      6371      6373      6369      6368      6371      6374
      6370      6368      6371      6372      6370      6368      6371      6373
      6370      6368      6371      6374      6371      6374      6377      6378
      6371      6374      6377      6379      6371      6374      6377      6380
      6372      6371      6374      6375      6372      6371      6374      6376
      6372      6371      6374      6377      6373      6371      6374      6375
      6373      6371      6374      6376      6373      6371      6374      6377
      6374      6377      6380      6381      6374      6377      6380      6382
      6374      6377      6380      6383      6375      6374      6377      6378
      6375      6374      6377      6379      6375      6374      6377      6380
      6376      6374      6377      6378      6376      6374      6377      6379
      6376      6374      6377      6380      6378      6377      6380      6381
      6378      6377      6380      6382      6378      6377      6380      6383
      6379      6377      6380      6381      6379      6377      6380      6382
      6379      6377      6380      6383      6384      6388      6390      6391
      6384      6388      6390      6392      6384      6388      6393      6394
      6384      6388      6393      6395      6384      6388      6393      6399
      6385      6384      6388      6389      6385      6384      6388      6390
      6385      6384      6388      6393      6386      6384      6388      6389
      6386      6384      6388      6390      6386      6384      6388      6393
      6387      6384      6388      6389      6387      6384      6388      6390
      6387      6384      6388      6393      6388      6393      6399      6396
      6389      6388      6390      6391      6389      6388      6390      6392
      6389      6388      6393      6394      6389      6388      6393      6395
      6389      6388      6393      6399      6390      6388      6393      6394
      6390      6388      6393      6395      6390      6388      6393      6399
      6391      6390      6388      6393      6392      6390      6388      6393
      6393      6399      6396      6397      6393      6399      6396      6398
      6393      6399      6396      6400      6394      6393      6399      6396
      6395      6393      6399      6396      6396      6400      6401      6402
      6396      6400      6401      6403      6396      6400      6401      6404
      6397      6396      6400      6401      6398      6396      6400      6401
      6399      6396      6400      6401      6400      6401      6404      6405
      6400      6401      6404      6406      6400      6401      6404      6412
      6401      6404      6406      6407      6401      6404      6412      6413
      6401      6404      6412      6414      6401      6404      6412      6415
      6402      6401      6404      6405      6402      6401      6404      6406
      6402      6401      6404      6412      6403      6401      6404      6405
      6403      6401      6404      6406      6403      6401      6404      6412
      6404      6406      6407      6408      6404      6406      6407      6409
      6404      6412      6415      6416      6405      6404      6406      6407
      6405      6404      6412      6413      6405      6404      6412      6414
      6405      6404      6412      6415      6406      6404      6412      6413
      6406      6404      6412      6414      6406      6404      6412      6415
      6406      6407      6409      6410      6406      6407      6409      6411
      6406      6407      6409      6421      6407      6406      6404      6412
      6407      6409      6421      6422      6407      6409      6421      6423
      6407      6409      6421      6424      6408      6407      6409      6410
      6408      6407      6409      6411      6408      6407      6409      6421
      6409      6421      6424      6425      6409      6421      6424      6426
      6409      6421      6424      6427      6410      6409      6421      6422
      6410      6409      6421      6423      6410      6409      6421      6424
      6411      6409      6421      6422      6411      6409      6421      6423
      6411      6409      6421      6424      6412      6415      6416      6417
      6412      6415      6416      6418      6413      6412      6415      6416
      6414      6412      6415      6416      6415      6416      6418      6419
      6415      6416      6418      6420      6415      6416      6418      6468
      6416      6418      6468      6469      6416      6418      6468      6470
      6416      6418      6468      6471      6417      6416      6418      6419
      6417      6416      6418      6420      6417      6416      6418      6468
      6418      6468      6471      6472      6418      6468      6471      6473
      6418      6468      6471      6474      6419      6418      6468      6469
      6419      6418      6468      6470      6419      6418      6468      6471
      6420      6418      6468      6469      6420      6418      6468      6470
      6420      6418      6468      6471      6421      6424      6427      6428
      6421      6424      6427      6429      6421      6424      6427      6430
      6422      6421      6424      6425      6422      6421      6424      6426
      6422      6421      6424      6427      6423      6421      6424      6425
      6423      6421      6424      6426      6423      6421      6424      6427
      6424      6427      6430      6431      6424      6427      6430      6432
      6424      6427      6430      6433      6425      6424      6427      6428
      6425      6424      6427      6429      6425      6424      6427      6430
      6426      6424      6427      6428      6426      6424      6427      6429
      6426      6424      6427      6430      6427      6430      6433      6434
      6427      6430      6433      6435      6427      6430      6433      6436
      6428      6427      6430      6431      6428      6427      6430      6432
      6428      6427      6430      6433      6429      6427      6430      6431
      6429      6427      6430      6432      6429      6427      6430      6433
      6430      6433      6436      6437      6430      6433      6436      6438
      6430      6433      6436      6439      6431      6430      6433      6434
      6431      6430      6433      6435      6431      6430      6433      6436
      6432      6430      6433      6434      6432      6430      6433      6435
      6432      6430      6433      6436      6433      6436      6439      6440
      6433      6436      6439      6441      6434      6433      6436      6437
      6434      6433      6436      6438      6434      6433      6436      6439
      6435      6433      6436      6437      6435      6433      6436      6438
      6435      6433      6436      6439      6436      6439      6441      6442
      6436      6439      6441      6443      6437      6436      6439      6440
      6437      6436      6439      6441      6438      6436      6439      6440
      6438      6436      6439      6441      6439      6441      6443      6444
      6439      6441      6443      6445      6439      6441      6443      6446
      6440      6439      6441      6442      6440      6439      6441      6443
      6441      6443      6446      6447      6441      6443      6446      6448
      6441      6443      6446      6449      6442      6441      6443      6444
      6442      6441      6443      6445      6442      6441      6443      6446
      6443      6446      6449      6450      6443      6446      6449      6451
      6443      6446      6449      6452      6444      6443      6446      6447
      6444      6443      6446      6448      6444      6443      6446      6449
      6445      6443      6446      6447      6445      6443      6446      6448
      6445      6443      6446      6449      6446      6449      6452      6453
      6446      6449      6452      6454      6446      6449      6452      6455
      6447      6446      6449      6450      6447      6446      6449      6451
      6447      6446      6449      6452      6448      6446      6449      6450
      6448      6446      6449      6451      6448      6446      6449      6452
      6449      6452      6455      6456      6449      6452      6455      6457
      6449      6452      6455      6458      6450      6449      6452      6453
      6450      6449      6452      6454      6450      6449      6452      6455
      6451      6449      6452      6453      6451      6449      6452      6454
      6451      6449      6452      6455      6452      6455      6458      6459
      6452      6455      6458      6460      6452      6455      6458      6461
      6453      6452      6455      6456      6453      6452      6455      6457
      6453      6452      6455      6458      6454      6452      6455      6456
      6454      6452      6455      6457      6454      6452      6455      6458
      6455      6458      6461      6462      6455      6458      6461      6463
      6455      6458      6461      6464      6456      6455      6458      6459
      6456      6455      6458      6460      6456      6455      6458      6461
      6457      6455      6458      6459      6457      6455      6458      6460
      6457      6455      6458      6461      6458      6461      6464      6465
      6458      6461      6464      6466      6458      6461      6464      6467
      6459      6458      6461      6462      6459      6458      6461      6463
      6459      6458      6461      6464      6460      6458      6461      6462
      6460      6458      6461      6463      6460      6458      6461      6464
      6462      6461      6464      6465      6462      6461      6464      6466
      6462      6461      6464      6467      6463      6461      6464      6465
      6463      6461      6464      6466      6463      6461      6464      6467
      6468      6471      6474      6475      6468      6471      6474      6476
      6468      6471      6474      6477      6469      6468      6471      6472
      6469      6468      6471      6473      6469      6468      6471      6474
      6470      6468      6471      6472      6470      6468      6471      6473
      6470      6468      6471      6474      6471      6474      6477      6478
      6471      6474      6477      6479      6471      6474      6477      6480
      6472      6471      6474      6475      6472      6471      6474      6476
      6472      6471      6474      6477      6473      6471      6474      6475
      6473      6471      6474      6476      6473      6471      6474      6477
      6474      6477      6480      6481      6474      6477      6480      6482
      6474      6477      6480      6483      6475      6474      6477      6478
      6475      6474      6477      6479      6475      6474      6477      6480
      6476      6474      6477      6478      6476      6474      6477      6479
      6476      6474      6477      6480      6477      6480      6483      6484
      6477      6480      6483      6485      6477      6480      6483      6486
      6478      6477      6480      6481      6478      6477      6480      6482
      6478      6477      6480      6483      6479      6477      6480      6481
      6479      6477      6480      6482      6479      6477      6480      6483
      6480      6483      6486      6487      6480      6483      6486      6488
      6480      6483      6486      6489      6481      6480      6483      6484
      6481      6480      6483      6485      6481      6480      6483      6486
      6482      6480      6483      6484      6482      6480      6483      6485
      6482      6480      6483      6486      6483      6486      6489      6490
      6483      6486      6489      6491      6483      6486      6489      6492
      6484      6483      6486      6487      6484      6483      6486      6488
      6484      6483      6486      6489      6485      6483      6486      6487
      6485      6483      6486      6488      6485      6483      6486      6489
      6486      6489      6492      6493      6486      6489      6492      6494
      6486      6489      6492      6495      6487      6486      6489      6490
      6487      6486      6489      6491      6487      6486      6489      6492
      6488      6486      6489      6490      6488      6486      6489      6491
      6488      6486      6489      6492      6489      6492      6495      6496
      6489      6492      6495      6497      6489      6492      6495      6498
      6490      6489      6492      6493      6490      6489      6492      6494
      6490      6489      6492      6495      6491      6489      6492      6493
      6491      6489      6492      6494      6491      6489      6492      6495
      6492      6495      6498      6499      6492      6495      6498      6500
      6492      6495      6498      6501      6493      6492      6495      6496
      6493      6492      6495      6497      6493      6492      6495      6498
      6494      6492      6495      6496      6494      6492      6495      6497
      6494      6492      6495      6498      6495      6498      6501      6502
      6495      6498      6501      6503      6495      6498      6501      6504
      6496      6495      6498      6499      6496      6495      6498      6500
      6496      6495      6498      6501      6497      6495      6498      6499
      6497      6495      6498      6500      6497      6495      6498      6501
      6498      6501      6504      6505      6498      6501      6504      6506
      6498      6501      6504      6507      6499      6498      6501      6502
      6499      6498      6501      6503      6499      6498      6501      6504
      6500      6498      6501      6502      6500      6498      6501      6503
      6500      6498      6501      6504      6501      6504      6507      6508
      6501      6504      6507      6509      6501      6504      6507      6510
      6502      6501      6504      6505      6502      6501      6504      6506
      6502      6501      6504      6507      6503      6501      6504      6505
      6503      6501      6504      6506      6503      6501      6504      6507
      6505      6504      6507      6508      6505      6504      6507      6509
      6505      6504      6507      6510      6506      6504      6507      6508
      6506      6504      6507      6509      6506      6504      6507      6510
      6511      6515      6517      6518      6511      6515      6517      6519
      6511      6515      6520      6521      6511      6515      6520      6522
      6511      6515      6520      6526      6512      6511      6515      6516
      6512      6511      6515      6517      6512      6511      6515      6520
      6513      6511      6515      6516      6513      6511      6515      6517
      6513      6511      6515      6520      6514      6511      6515      6516
      6514      6511      6515      6517      6514      6511      6515      6520
      6515      6520      6526      6523      6516      6515      6517      6518
      6516      6515      6517      6519      6516      6515      6520      6521
      6516      6515      6520      6522      6516      6515      6520      6526
      6517      6515      6520      6521      6517      6515      6520      6522
      6517      6515      6520      6526      6518      6517      6515      6520
      6519      6517      6515      6520      6520      6526      6523      6524
      6520      6526      6523      6525      6520      6526      6523      6527
      6521      6520      6526      6523      6522      6520      6526      6523
      6523      6527      6528      6529      6523      6527      6528      6530
      6523      6527      6528      6531      6524      6523      6527      6528
      6525      6523      6527      6528      6526      6523      6527      6528
      6527      6528      6531      6532      6527      6528      6531      6533
      6527      6528      6531      6539      6528      6531      6533      6534
      6528      6531      6539      6540      6528      6531      6539      6541
      6528      6531      6539      6542      6529      6528      6531      6532
      6529      6528      6531      6533      6529      6528      6531      6539
      6530      6528      6531      6532      6530      6528      6531      6533
      6530      6528      6531      6539      6531      6533      6534      6535
      6531      6533      6534      6536      6531      6539      6542      6543
      6532      6531      6533      6534      6532      6531      6539      6540
      6532      6531      6539      6541      6532      6531      6539      6542
      6533      6531      6539      6540      6533      6531      6539      6541
      6533      6531      6539      6542      6533      6534      6536      6537
      6533      6534      6536      6538      6533      6534      6536      6548
      6534      6533      6531      6539      6534      6536      6548      6549
      6534      6536      6548      6550      6534      6536      6548      6551
      6535      6534      6536      6537      6535      6534      6536      6538
      6535      6534      6536      6548      6536      6548      6551      6552
      6536      6548      6551      6553      6536      6548      6551      6554
      6537      6536      6548      6549      6537      6536      6548      6550
      6537      6536      6548      6551      6538      6536      6548      6549
      6538      6536      6548      6550      6538      6536      6548      6551
      6539      6542      6543      6544      6539      6542      6543      6545
      6540      6539      6542      6543      6541      6539      6542      6543
      6542      6543      6545      6546      6542      6543      6545      6547
      6542      6543      6545      6595      6543      6545      6595      6596
      6543      6545      6595      6597      6543      6545      6595      6598
      6544      6543      6545      6546      6544      6543      6545      6547
      6544      6543      6545      6595      6545      6595      6598      6599
      6545      6595      6598      6600      6545      6595      6598      6601
      6546      6545      6595      6596      6546      6545      6595      6597
      6546      6545      6595      6598      6547      6545      6595      6596
      6547      6545      6595      6597      6547      6545      6595      6598
      6548      6551      6554      6555      6548      6551      6554      6556
      6548      6551      6554      6557      6549      6548      6551      6552
      6549      6548      6551      6553      6549      6548      6551      6554
      6550      6548      6551      6552      6550      6548      6551      6553
      6550      6548      6551      6554      6551      6554      6557      6558
      6551      6554      6557      6559      6551      6554      6557      6560
      6552      6551      6554      6555      6552      6551      6554      6556
      6552      6551      6554      6557      6553      6551      6554      6555
      6553      6551      6554      6556      6553      6551      6554      6557
      6554      6557      6560      6561      6554      6557      6560      6562
      6554      6557      6560      6563      6555      6554      6557      6558
      6555      6554      6557      6559      6555      6554      6557      6560
      6556      6554      6557      6558      6556      6554      6557      6559
      6556      6554      6557      6560      6557      6560      6563      6564
      6557      6560      6563      6565      6557      6560      6563      6566
      6558      6557      6560      6561      6558      6557      6560      6562
      6558      6557      6560      6563      6559      6557      6560      6561
      6559      6557      6560      6562      6559      6557      6560      6563
      6560      6563      6566      6567      6560      6563      6566      6568
      6561      6560      6563      6564      6561      6560      6563      6565
      6561      6560      6563      6566      6562      6560      6563      6564
      6562      6560      6563      6565      6562      6560      6563      6566
      6563      6566      6568      6569      6563      6566      6568      6570
      6564      6563      6566      6567      6564      6563      6566      6568
      6565      6563      6566      6567      6565      6563      6566      6568
      6566      6568      6570      6571      6566      6568      6570      6572
      6566      6568      6570      6573      6567      6566      6568      6569
      6567      6566      6568      6570      6568      6570      6573      6574
      6568      6570      6573      6575      6568      6570      6573      6576
      6569      6568      6570      6571      6569      6568      6570      6572
      6569      6568      6570      6573      6570      6573      6576      6577
      6570      6573      6576      6578      6570      6573      6576      6579
      6571      6570      6573      6574      6571      6570      6573      6575
      6571      6570      6573      6576      6572      6570      6573      6574
      6572      6570      6573      6575      6572      6570      6573      6576
      6573      6576      6579      6580      6573      6576      6579      6581
      6573      6576      6579      6582      6574      6573      6576      6577
      6574      6573      6576      6578      6574      6573      6576      6579
      6575      6573      6576      6577      6575      6573      6576      6578
      6575      6573      6576      6579      6576      6579      6582      6583
      6576      6579      6582      6584      6576      6579      6582      6585
      6577      6576      6579      6580      6577      6576      6579      6581
      6577      6576      6579      6582      6578      6576      6579      6580
      6578      6576      6579      6581      6578      6576      6579      6582
      6579      6582      6585      6586      6579      6582      6585      6587
      6579      6582      6585      6588      6580      6579      6582      6583
      6580      6579      6582      6584      6580      6579      6582      6585
      6581      6579      6582      6583      6581      6579      6582      6584
      6581      6579      6582      6585      6582      6585      6588      6589
      6582      6585      6588      6590      6582      6585      6588      6591
      6583      6582      6585      6586      6583      6582      6585      6587
      6583      6582      6585      6588      6584      6582      6585      6586
      6584      6582      6585      6587      6584      6582      6585      6588
      6585      6588      6591      6592      6585      6588      6591      6593
      6585      6588      6591      6594      6586      6585      6588      6589
      6586      6585      6588      6590      6586      6585      6588      6591
      6587      6585      6588      6589      6587      6585      6588      6590
      6587      6585      6588      6591      6589      6588      6591      6592
      6589      6588      6591      6593      6589      6588      6591      6594
      6590      6588      6591      6592      6590      6588      6591      6593
      6590      6588      6591      6594      6595      6598      6601      6602
      6595      6598      6601      6603      6595      6598      6601      6604
      6596      6595      6598      6599      6596      6595      6598      6600
      6596      6595      6598      6601      6597      6595      6598      6599
      6597      6595      6598      6600      6597      6595      6598      6601
      6598      6601      6604      6605      6598      6601      6604      6606
      6598      6601      6604      6607      6599      6598      6601      6602
      6599      6598      6601      6603      6599      6598      6601      6604
      6600      6598      6601      6602      6600      6598      6601      6603
      6600      6598      6601      6604      6601      6604      6607      6608
      6601      6604      6607      6609      6601      6604      6607      6610
      6602      6601      6604      6605      6602      6601      6604      6606
      6602      6601      6604      6607      6603      6601      6604      6605
      6603      6601      6604      6606      6603      6601      6604      6607
      6604      6607      6610      6611      6604      6607      6610      6612
      6604      6607      6610      6613      6605      6604      6607      6608
      6605      6604      6607      6609      6605      6604      6607      6610
      6606      6604      6607      6608      6606      6604      6607      6609
      6606      6604      6607      6610      6607      6610      6613      6614
      6607      6610      6613      6615      6607      6610      6613      6616
      6608      6607      6610      6611      6608      6607      6610      6612
      6608      6607      6610      6613      6609      6607      6610      6611
      6609      6607      6610      6612      6609      6607      6610      6613
      6610      6613      6616      6617      6610      6613      6616      6618
      6610      6613      6616      6619      6611      6610      6613      6614
      6611      6610      6613      6615      6611      6610      6613      6616
      6612      6610      6613      6614      6612      6610      6613      6615
      6612      6610      6613      6616      6613      6616      6619      6620
      6613      6616      6619      6621      6613      6616      6619      6622
      6614      6613      6616      6617      6614      6613      6616      6618
      6614      6613      6616      6619      6615      6613      6616      6617
      6615      6613      6616      6618      6615      6613      6616      6619
      6616      6619      6622      6623      6616      6619      6622      6624
      6616      6619      6622      6625      6617      6616      6619      6620
      6617      6616      6619      6621      6617      6616      6619      6622
      6618      6616      6619      6620      6618      6616      6619      6621
      6618      6616      6619      6622      6619      6622      6625      6626
      6619      6622      6625      6627      6619      6622      6625      6628
      6620      6619      6622      6623      6620      6619      6622      6624
      6620      6619      6622      6625      6621      6619      6622      6623
      6621      6619      6622      6624      6621      6619      6622      6625
      6622      6625      6628      6629      6622      6625      6628      6630
      6622      6625      6628      6631      6623      6622      6625      6626
      6623      6622      6625      6627      6623      6622      6625      6628
      6624      6622      6625      6626      6624      6622      6625      6627
      6624      6622      6625      6628      6625      6628      6631      6632
      6625      6628      6631      6633      6625      6628      6631      6634
      6626      6625      6628      6629      6626      6625      6628      6630
      6626      6625      6628      6631      6627      6625      6628      6629
      6627      6625      6628      6630      6627      6625      6628      6631
      6628      6631      6634      6635      6628      6631      6634      6636
      6628      6631      6634      6637      6629      6628      6631      6632
      6629      6628      6631      6633      6629      6628      6631      6634
      6630      6628      6631      6632      6630      6628      6631      6633
      6630      6628      6631      6634      6632      6631      6634      6635
      6632      6631      6634      6636      6632      6631      6634      6637
      6633      6631      6634      6635      6633      6631      6634      6636
      6633      6631      6634      6637      6638      6642      6644      6645
      6638      6642      6644      6646      6638      6642      6647      6648
      6638      6642      6647      6649      6638      6642      6647      6653
      6639      6638      6642      6643      6639      6638      6642      6644
      6639      6638      6642      6647      6640      6638      6642      6643
      6640      6638      6642      6644      6640      6638      6642      6647
      6641      6638      6642      6643      6641      6638      6642      6644
      6641      6638      6642      6647      6642      6647      6653      6650
      6643      6642      6644      6645      6643      6642      6644      6646
      6643      6642      6647      6648      6643      6642      6647      6649
      6643      6642      6647      6653      6644      6642      6647      6648
      6644      6642      6647      6649      6644      6642      6647      6653
      6645      6644      6642      6647      6646      6644      6642      6647
      6647      6653      6650      6651      6647      6653      6650      6652
      6647      6653      6650      6654      6648      6647      6653      6650
      6649      6647      6653      6650      6650      6654      6655      6656
      6650      6654      6655      6657      6650      6654      6655      6658
      6651      6650      6654      6655      6652      6650      6654      6655
      6653      6650      6654      6655      6654      6655      6658      6659
      6654      6655      6658      6660      6654      6655      6658      6666
      6655      6658      6660      6661      6655      6658      6666      6667
      6655      6658      6666      6668      6655      6658      6666      6669
      6656      6655      6658      6659      6656      6655      6658      6660
      6656      6655      6658      6666      6657      6655      6658      6659
      6657      6655      6658      6660      6657      6655      6658      6666
      6658      6660      6661      6662      6658      6660      6661      6663
      6658      6666      6669      6670      6659      6658      6660      6661
      6659      6658      6666      6667      6659      6658      6666      6668
      6659      6658      6666      6669      6660      6658      6666      6667
      6660      6658      6666      6668      6660      6658      6666      6669
      6660      6661      6663      6664      6660      6661      6663      6665
      6660      6661      6663      6675      6661      6660      6658      6666
      6661      6663      6675      6676      6661      6663      6675      6677
      6661      6663      6675      6678      6662      6661      6663      6664
      6662      6661      6663      6665      6662      6661      6663      6675
      6663      6675      6678      6679      6663      6675      6678      6680
      6663      6675      6678      6681      6664      6663      6675      6676
      6664      6663      6675      6677      6664      6663      6675      6678
      6665      6663      6675      6676      6665      6663      6675      6677
      6665      6663      6675      6678      6666      6669      6670      6671
      6666      6669      6670      6672      6667      6666      6669      6670
      6668      6666      6669      6670      6669      6670      6672      6673
      6669      6670      6672      6674      6669      6670      6672      6722
      6670      6672      6722      6723      6670      6672      6722      6724
      6670      6672      6722      6725      6671      6670      6672      6673
      6671      6670      6672      6674      6671      6670      6672      6722
      6672      6722      6725      6726      6672      6722      6725      6727
      6672      6722      6725      6728      6673      6672      6722      6723
      6673      6672      6722      6724      6673      6672      6722      6725
      6674      6672      6722      6723      6674      6672      6722      6724
      6674      6672      6722      6725      6675      6678      6681      6682
      6675      6678      6681      6683      6675      6678      6681      6684
      6676      6675      6678      6679      6676      6675      6678      6680
      6676      6675      6678      6681      6677      6675      6678      6679
      6677      6675      6678      6680      6677      6675      6678      6681
      6678      6681      6684      6685      6678      6681      6684      6686
      6678      6681      6684      6687      6679      6678      6681      6682
      6679      6678      6681      6683      6679      6678      6681      6684
      6680      6678      6681      6682      6680      6678      6681      6683
      6680      6678      6681      6684      6681      6684      6687      6688
      6681      6684      6687      6689      6681      6684      6687      6690
      6682      6681      6684      6685      6682      6681      6684      6686
      6682      6681      6684      6687      6683      6681      6684      6685
      6683      6681      6684      6686      6683      6681      6684      6687
      6684      6687      6690      6691      6684      6687      6690      6692
      6684      6687      6690      6693      6685      6684      6687      6688
      6685      6684      6687      6689      6685      6684      6687      6690
      6686      6684      6687      6688      6686      6684      6687      6689
      6686      6684      6687      6690      6687      6690      6693      6694
      6687      6690      6693      6695      6688      6687      6690      6691
      6688      6687      6690      6692      6688      6687      6690      6693
      6689      6687      6690      6691      6689      6687      6690      6692
      6689      6687      6690      6693      6690      6693      6695      6696
      6690      6693      6695      6697      6691      6690      6693      6694
      6691      6690      6693      6695      6692      6690      6693      6694
      6692      6690      6693      6695      6693      6695      6697      6698
      6693      6695      6697      6699      6693      6695      6697      6700
      6694      6693      6695      6696      6694      6693      6695      6697
      6695      6697      6700      6701      6695      6697      6700      6702
      6695      6697      6700      6703      6696      6695      6697      6698
      6696      6695      6697      6699      6696      6695      6697      6700
      6697      6700      6703      6704      6697      6700      6703      6705
      6697      6700      6703      6706      6698      6697      6700      6701
      6698      6697      6700      6702      6698      6697      6700      6703
      6699      6697      6700      6701      6699      6697      6700      6702
      6699      6697      6700      6703      6700      6703      6706      6707
      6700      6703      6706      6708      6700      6703      6706      6709
      6701      6700      6703      6704      6701      6700      6703      6705
      6701      6700      6703      6706      6702      6700      6703      6704
      6702      6700      6703      6705      6702      6700      6703      6706
      6703      6706      6709      6710      6703      6706      6709      6711
      6703      6706      6709      6712      6704      6703      6706      6707
      6704      6703      6706      6708      6704      6703      6706      6709
      6705      6703      6706      6707      6705      6703      6706      6708
      6705      6703      6706      6709      6706      6709      6712      6713
      6706      6709      6712      6714      6706      6709      6712      6715
      6707      6706      6709      6710      6707      6706      6709      6711
      6707      6706      6709      6712      6708      6706      6709      6710
      6708      6706      6709      6711      6708      6706      6709      6712
      6709      6712      6715      6716      6709      6712      6715      6717
      6709      6712      6715      6718      6710      6709      6712      6713
      6710      6709      6712      6714      6710      6709      6712      6715
      6711      6709      6712      6713      6711      6709      6712      6714
      6711      6709      6712      6715      6712      6715      6718      6719
      6712      6715      6718      6720      6712      6715      6718      6721
      6713      6712      6715      6716      6713      6712      6715      6717
      6713      6712      6715      6718      6714      6712      6715      6716
      6714      6712      6715      6717      6714      6712      6715      6718
      6716      6715      6718      6719      6716      6715      6718      6720
      6716      6715      6718      6721      6717      6715      6718      6719
      6717      6715      6718      6720      6717      6715      6718      6721
      6722      6725      6728      6729      6722      6725      6728      6730
      6722      6725      6728      6731      6723      6722      6725      6726
      6723      6722      6725      6727      6723      6722      6725      6728
      6724      6722      6725      6726      6724      6722      6725      6727
      6724      6722      6725      6728      6725      6728      6731      6732
      6725      6728      6731      6733      6725      6728      6731      6734
      6726      6725      6728      6729      6726      6725      6728      6730
      6726      6725      6728      6731      6727      6725      6728      6729
      6727      6725      6728      6730      6727      6725      6728      6731
      6728      6731      6734      6735      6728      6731      6734      6736
      6728      6731      6734      6737      6729      6728      6731      6732
      6729      6728      6731      6733      6729      6728      6731      6734
      6730      6728      6731      6732      6730      6728      6731      6733
      6730      6728      6731      6734      6731      6734      6737      6738
      6731      6734      6737      6739      6731      6734      6737      6740
      6732      6731      6734      6735      6732      6731      6734      6736
      6732      6731      6734      6737      6733      6731      6734      6735
      6733      6731      6734      6736      6733      6731      6734      6737
      6734      6737      6740      6741      6734      6737      6740      6742
      6734      6737      6740      6743      6735      6734      6737      6738
      6735      6734      6737      6739      6735      6734      6737      6740
      6736      6734      6737      6738      6736      6734      6737      6739
      6736      6734      6737      6740      6737      6740      6743      6744
      6737      6740      6743      6745      6737      6740      6743      6746
      6738      6737      6740      6741      6738      6737      6740      6742
      6738      6737      6740      6743      6739      6737      6740      6741
      6739      6737      6740      6742      6739      6737      6740      6743
      6740      6743      6746      6747      6740      6743      6746      6748
      6740      6743      6746      6749      6741      6740      6743      6744
      6741      6740      6743      6745      6741      6740      6743      6746
      6742      6740      6743      6744      6742      6740      6743      6745
      6742      6740      6743      6746      6743      6746      6749      6750
      6743      6746      6749      6751      6743      6746      6749      6752
      6744      6743      6746      6747      6744      6743      6746      6748
      6744      6743      6746      6749      6745      6743      6746      6747
      6745      6743      6746      6748      6745      6743      6746      6749
      6746      6749      6752      6753      6746      6749      6752      6754
      6746      6749      6752      6755      6747      6746      6749      6750
      6747      6746      6749      6751      6747      6746      6749      6752
      6748      6746      6749      6750      6748      6746      6749      6751
      6748      6746      6749      6752      6749      6752      6755      6756
      6749      6752      6755      6757      6749      6752      6755      6758
      6750      6749      6752      6753      6750      6749      6752      6754
      6750      6749      6752      6755      6751      6749      6752      6753
      6751      6749      6752      6754      6751      6749      6752      6755
      6752      6755      6758      6759      6752      6755      6758      6760
      6752      6755      6758      6761      6753      6752      6755      6756
      6753      6752      6755      6757      6753      6752      6755      6758
      6754      6752      6755      6756      6754      6752      6755      6757
      6754      6752      6755      6758      6755      6758      6761      6762
      6755      6758      6761      6763      6755      6758      6761      6764
      6756      6755      6758      6759      6756      6755      6758      6760
      6756      6755      6758      6761      6757      6755      6758      6759
      6757      6755      6758      6760      6757      6755      6758      6761
      6759      6758      6761      6762      6759      6758      6761      6763
      6759      6758      6761      6764      6760      6758      6761      6762
      6760      6758      6761      6763      6760      6758      6761      6764
      6765      6766      6781      6782      6765      6766      6781      6783
      6765      6766      6781      6787      6766      6765      6769      6770
      6766      6765      6769      6771      6766      6765      6769      6772
      6766      6765      6773      6774      6766      6765      6773      6775
      6766      6765      6773      6776      6766      6765      6777      6778
      6766      6765      6777      6779      6766      6765      6777      6780
      6766      6781      6787      6784      6767      6766      6765      6769
      6767      6766      6765      6773      6767      6766      6765      6777
      6767      6766      6781      6782      6767      6766      6781      6783
      6767      6766      6781      6787      6768      6766      6765      6769
      6768      6766      6765      6773      6768      6766      6765      6777
      6768      6766      6781      6782      6768      6766      6781      6783
      6768      6766      6781      6787      6769      6765      6766      6781
      6769      6765      6773      6774      6769      6765      6773      6775
      6769      6765      6773      6776      6769      6765      6777      6778
      6769      6765      6777      6779      6769      6765      6777      6780
      6770      6769      6765      6773      6770      6769      6765      6777
      6771      6769      6765      6773      6771      6769      6765      6777
      6772      6769      6765      6773      6772      6769      6765      6777
      6773      6765      6766      6781      6773      6765      6777      6778
      6773      6765      6777      6779      6773      6765      6777      6780
      6774      6773      6765      6777      6775      6773      6765      6777
      6776      6773      6765      6777      6777      6765      6766      6781
      6781      6787      6784      6785      6781      6787      6784      6786
      6781      6787      6784      6788      6782      6781      6787      6784
      6783      6781      6787      6784      6784      6788      6789      6790
      6784      6788      6789      6791      6784      6788      6789      6792
      6785      6784      6788      6789      6786      6784      6788      6789
      6787      6784      6788      6789      6788      6789      6792      6793
      6788      6789      6792      6794      6788      6789      6792      6800
      6789      6792      6794      6795      6789      6792      6800      6801
      6789      6792      6800      6802      6789      6792      6800      6803
      6790      6789      6792      6793      6790      6789      6792      6794
      6790      6789      6792      6800      6791      6789      6792      6793
      6791      6789      6792      6794      6791      6789      6792      6800
      6792      6794      6795      6796      6792      6794      6795      6797
      6792      6800      6803      6804      6793      6792      6794      6795
      6793      6792      6800      6801      6793      6792      6800      6802
      6793      6792      6800      6803      6794      6792      6800      6801
      6794      6792      6800      6802      6794      6792      6800      6803
      6794      6795      6797      6798      6794      6795      6797      6799
      6794      6795      6797      6809      6795      6794      6792      6800
      6795      6797      6809      6810      6795      6797      6809      6811
      6795      6797      6809      6812      6796      6795      6797      6798
      6796      6795      6797      6799      6796      6795      6797      6809
      6797      6809      6812      6813      6797      6809      6812      6814
      6797      6809      6812      6815      6798      6797      6809      6810
      6798      6797      6809      6811      6798      6797      6809      6812
      6799      6797      6809      6810      6799      6797      6809      6811
      6799      6797      6809      6812      6800      6803      6804      6805
      6800      6803      6804      6806      6801      6800      6803      6804
      6802      6800      6803      6804      6803      6804      6806      6807
      6803      6804      6806      6808      6803      6804      6806      6856
      6804      6806      6856      6857      6804      6806      6856      6858
      6804      6806      6856      6859      6805      6804      6806      6807
      6805      6804      6806      6808      6805      6804      6806      6856
      6806      6856      6859      6860      6806      6856      6859      6861
      6806      6856      6859      6862      6807      6806      6856      6857
      6807      6806      6856      6858      6807      6806      6856      6859
      6808      6806      6856      6857      6808      6806      6856      6858
      6808      6806      6856      6859      6809      6812      6815      6816
      6809      6812      6815      6817      6809      6812      6815      6818
      6810      6809      6812      6813      6810      6809      6812      6814
      6810      6809      6812      6815      6811      6809      6812      6813
      6811      6809      6812      6814      6811      6809      6812      6815
      6812      6815      6818      6819      6812      6815      6818      6820
      6812      6815      6818      6821      6813      6812      6815      6816
      6813      6812      6815      6817      6813      6812      6815      6818
      6814      6812      6815      6816      6814      6812      6815      6817
      6814      6812      6815      6818      6815      6818      6821      6822
      6815      6818      6821      6823      6815      6818      6821      6824
      6816      6815      6818      6819      6816      6815      6818      6820
      6816      6815      6818      6821      6817      6815      6818      6819
      6817      6815      6818      6820      6817      6815      6818      6821
      6818      6821      6824      6825      6818      6821      6824      6826
      6818      6821      6824      6827      6819      6818      6821      6822
      6819      6818      6821      6823      6819      6818      6821      6824
      6820      6818      6821      6822      6820      6818      6821      6823
      6820      6818      6821      6824      6821      6824      6827      6828
      6821      6824      6827      6829      6822      6821      6824      6825
      6822      6821      6824      6826      6822      6821      6824      6827
      6823      6821      6824      6825      6823      6821      6824      6826
      6823      6821      6824      6827      6824      6827      6829      6830
      6824      6827      6829      6831      6825      6824      6827      6828
      6825      6824      6827      6829      6826      6824      6827      6828
      6826      6824      6827      6829      6827      6829      6831      6832
      6827      6829      6831      6833      6827      6829      6831      6834
      6828      6827      6829      6830      6828      6827      6829      6831
      6829      6831      6834      6835      6829      6831      6834      6836
      6829      6831      6834      6837      6830      6829      6831      6832
      6830      6829      6831      6833      6830      6829      6831      6834
      6831      6834      6837      6838      6831      6834      6837      6839
      6831      6834      6837      6840      6832      6831      6834      6835
      6832      6831      6834      6836      6832      6831      6834      6837
      6833      6831      6834      6835      6833      6831      6834      6836
      6833      6831      6834      6837      6834      6837      6840      6841
      6834      6837      6840      6842      6834      6837      6840      6843
      6835      6834      6837      6838      6835      6834      6837      6839
      6835      6834      6837      6840      6836      6834      6837      6838
      6836      6834      6837      6839      6836      6834      6837      6840
      6837      6840      6843      6844      6837      6840      6843      6845
      6837      6840      6843      6846      6838      6837      6840      6841
      6838      6837      6840      6842      6838      6837      6840      6843
      6839      6837      6840      6841      6839      6837      6840      6842
      6839      6837      6840      6843      6840      6843      6846      6847
      6840      6843      6846      6848      6840      6843      6846      6849
      6841      6840      6843      6844      6841      6840      6843      6845
      6841      6840      6843      6846      6842      6840      6843      6844
      6842      6840      6843      6845      6842      6840      6843      6846
      6843      6846      6849      6850      6843      6846      6849      6851
      6843      6846      6849      6852      6844      6843      6846      6847
      6844      6843      6846      6848      6844      6843      6846      6849
      6845      6843      6846      6847      6845      6843      6846      6848
      6845      6843      6846      6849      6846      6849      6852      6853
      6846      6849      6852      6854      6846      6849      6852      6855
      6847      6846      6849      6850      6847      6846      6849      6851
      6847      6846      6849      6852      6848      6846      6849      6850
      6848      6846      6849      6851      6848      6846      6849      6852
      6850      6849      6852      6853      6850      6849      6852      6854
      6850      6849      6852      6855      6851      6849      6852      6853
      6851      6849      6852      6854      6851      6849      6852      6855
      6856      6859      6862      6863      6856      6859      6862      6864
      6856      6859      6862      6865      6857      6856      6859      6860
      6857      6856      6859      6861      6857      6856      6859      6862
      6858      6856      6859      6860      6858      6856      6859      6861
      6858      6856      6859      6862      6859      6862      6865      6866
      6859      6862      6865      6867      6859      6862      6865      6868
      6860      6859      6862      6863      6860      6859      6862      6864
      6860      6859      6862      6865      6861      6859      6862      6863
      6861      6859      6862      6864      6861      6859      6862      6865
      6862      6865      6868      6869      6862      6865      6868      6870
      6862      6865      6868      6871      6863      6862      6865      6866
      6863      6862      6865      6867      6863      6862      6865      6868
      6864      6862      6865      6866      6864      6862      6865      6867
      6864      6862      6865      6868      6865      6868      6871      6872
      6865      6868      6871      6873      6865      6868      6871      6874
      6866      6865      6868      6869      6866      6865      6868      6870
      6866      6865      6868      6871      6867      6865      6868      6869
      6867      6865      6868      6870      6867      6865      6868      6871
      6868      6871      6874      6875      6868      6871      6874      6876
      6868      6871      6874      6877      6869      6868      6871      6872
      6869      6868      6871      6873      6869      6868      6871      6874
      6870      6868      6871      6872      6870      6868      6871      6873
      6870      6868      6871      6874      6871      6874      6877      6878
      6871      6874      6877      6879      6871      6874      6877      6880
      6872      6871      6874      6875      6872      6871      6874      6876
      6872      6871      6874      6877      6873      6871      6874      6875
      6873      6871      6874      6876      6873      6871      6874      6877
      6874      6877      6880      6881      6874      6877      6880      6882
      6874      6877      6880      6883      6875      6874      6877      6878
      6875      6874      6877      6879      6875      6874      6877      6880
      6876      6874      6877      6878      6876      6874      6877      6879
      6876      6874      6877      6880      6877      6880      6883      6884
      6877      6880      6883      6885      6877      6880      6883      6886
      6878      6877      6880      6881      6878      6877      6880      6882
      6878      6877      6880      6883      6879      6877      6880      6881
      6879      6877      6880      6882      6879      6877      6880      6883
      6880      6883      6886      6887      6880      6883      6886      6888
      6880      6883      6886      6889      6881      6880      6883      6884
      6881      6880      6883      6885      6881      6880      6883      6886
      6882      6880      6883      6884      6882      6880      6883      6885
      6882      6880      6883      6886      6883      6886      6889      6890
      6883      6886      6889      6891      6883      6886      6889      6892
      6884      6883      6886      6887      6884      6883      6886      6888
      6884      6883      6886      6889      6885      6883      6886      6887
      6885      6883      6886      6888      6885      6883      6886      6889
      6886      6889      6892      6893      6886      6889      6892      6894
      6886      6889      6892      6895      6887      6886      6889      6890
      6887      6886      6889      6891      6887      6886      6889      6892
      6888      6886      6889      6890      6888      6886      6889      6891
      6888      6886      6889      6892      6889      6892      6895      6896
      6889      6892      6895      6897      6889      6892      6895      6898
      6890      6889      6892      6893      6890      6889      6892      6894
      6890      6889      6892      6895      6891      6889      6892      6893
      6891      6889      6892      6894      6891      6889      6892      6895
      6893      6892      6895      6896      6893      6892      6895      6897
      6893      6892      6895      6898      6894      6892      6895      6896
      6894      6892      6895      6897      6894      6892      6895      6898
      6899      6900      6915      6916      6899      6900      6915      6917
      6899      6900      6915      6921      6900      6899      6903      6904
      6900      6899      6903      6905      6900      6899      6903      6906
      6900      6899      6907      6908      6900      6899      6907      6909
      6900      6899      6907      6910      6900      6899      6911      6912
      6900      6899      6911      6913      6900      6899      6911      6914
      6900      6915      6921      6918      6901      6900      6899      6903
      6901      6900      6899      6907      6901      6900      6899      6911
      6901      6900      6915      6916      6901      6900      6915      6917
      6901      6900      6915      6921      6902      6900      6899      6903
      6902      6900      6899      6907      6902      6900      6899      6911
      6902      6900      6915      6916      6902      6900      6915      6917
      6902      6900      6915      6921      6903      6899      6900      6915
      6903      6899      6907      6908      6903      6899      6907      6909
      6903      6899      6907      6910      6903      6899      6911      6912
      6903      6899      6911      6913      6903      6899      6911      6914
      6904      6903      6899      6907      6904      6903      6899      6911
      6905      6903      6899      6907      6905      6903      6899      6911
      6906      6903      6899      6907      6906      6903      6899      6911
      6907      6899      6900      6915      6907      6899      6911      6912
      6907      6899      6911      6913      6907      6899      6911      6914
      6908      6907      6899      6911      6909      6907      6899      6911
      6910      6907      6899      6911      6911      6899      6900      6915
      6915      6921      6918      6919      6915      6921      6918      6920
      6915      6921      6918      6922      6916      6915      6921      6918
      6917      6915      6921      6918      6918      6922      6923      6924
      6918      6922      6923      6925      6918      6922      6923      6926
      6919      6918      6922      6923      6920      6918      6922      6923
      6921      6918      6922      6923      6922      6923      6926      6927
      6922      6923      6926      6928      6922      6923      6926      6934
      6923      6926      6928      6929      6923      6926      6934      6935
      6923      6926      6934      6936      6923      6926      6934      6937
      6924      6923      6926      6927      6924      6923      6926      6928
      6924      6923      6926      6934      6925      6923      6926      6927
      6925      6923      6926      6928      6925      6923      6926      6934
      6926      6928      6929      6930      6926      6928      6929      6931
      6926      6934      6937      6938      6927      6926      6928      6929
      6927      6926      6934      6935      6927      6926      6934      6936
      6927      6926      6934      6937      6928      6926      6934      6935
      6928      6926      6934      6936      6928      6926      6934      6937
      6928      6929      6931      6932      6928      6929      6931      6933
      6928      6929      6931      6943      6929      6928      6926      6934
      6929      6931      6943      6944      6929      6931      6943      6945
      6929      6931      6943      6946      6930      6929      6931      6932
      6930      6929      6931      6933      6930      6929      6931      6943
      6931      6943      6946      6947      6931      6943      6946      6948
      6931      6943      6946      6949      6932      6931      6943      6944
      6932      6931      6943      6945      6932      6931      6943      6946
      6933      6931      6943      6944      6933      6931      6943      6945
      6933      6931      6943      6946      6934      6937      6938      6939
      6934      6937      6938      6940      6935      6934      6937      6938
      6936      6934      6937      6938      6937      6938      6940      6941
      6937      6938      6940      6942      6937      6938      6940      6990
      6938      6940      6990      6991      6938      6940      6990      6992
      6938      6940      6990      6993      6939      6938      6940      6941
      6939      6938      6940      6942      6939      6938      6940      6990
      6940      6990      6993      6994      6940      6990      6993      6995
      6940      6990      6993      6996      6941      6940      6990      6991
      6941      6940      6990      6992      6941      6940      6990      6993
      6942      6940      6990      6991      6942      6940      6990      6992
      6942      6940      6990      6993      6943      6946      6949      6950
      6943      6946      6949      6951      6943      6946      6949      6952
      6944      6943      6946      6947      6944      6943      6946      6948
      6944      6943      6946      6949      6945      6943      6946      6947
      6945      6943      6946      6948      6945      6943      6946      6949
      6946      6949      6952      6953      6946      6949      6952      6954
      6946      6949      6952      6955      6947      6946      6949      6950
      6947      6946      6949      6951      6947      6946      6949      6952
      6948      6946      6949      6950      6948      6946      6949      6951
      6948      6946      6949      6952      6949      6952      6955      6956
      6949      6952      6955      6957      6949      6952      6955      6958
      6950      6949      6952      6953      6950      6949      6952      6954
      6950      6949      6952      6955      6951      6949      6952      6953
      6951      6949      6952      6954      6951      6949      6952      6955
      6952      6955      6958      6959      6952      6955      6958      6960
      6952      6955      6958      6961      6953      6952      6955      6956
      6953      6952      6955      6957      6953      6952      6955      6958
      6954      6952      6955      6956      6954      6952      6955      6957
      6954      6952      6955      6958      6955      6958      6961      6962
      6955      6958      6961      6963      6956      6955      6958      6959
      6956      6955      6958      6960      6956      6955      6958      6961
      6957      6955      6958      6959      6957      6955      6958      6960
      6957      6955      6958      6961      6958      6961      6963      6964
      6958      6961      6963      6965      6959      6958      6961      6962
      6959      6958      6961      6963      6960      6958      6961      6962
      6960      6958      6961      6963      6961      6963      6965      6966
      6961      6963      6965      6967      6961      6963      6965      6968
      6962      6961      6963      6964      6962      6961      6963      6965
      6963      6965      6968      6969      6963      6965      6968      6970
      6963      6965      6968      6971      6964      6963      6965      6966
      6964      6963      6965      6967      6964      6963      6965      6968
      6965      6968      6971      6972      6965      6968      6971      6973
      6965      6968      6971      6974      6966      6965      6968      6969
      6966      6965      6968      6970      6966      6965      6968      6971
      6967      6965      6968      6969      6967      6965      6968      6970
      6967      6965      6968      6971      6968      6971      6974      6975
      6968      6971      6974      6976      6968      6971      6974      6977
      6969      6968      6971      6972      6969      6968      6971      6973
      6969      6968      6971      6974      6970      6968      6971      6972
      6970      6968      6971      6973      6970      6968      6971      6974
      6971      6974      6977      6978      6971      6974      6977      6979
      6971      6974      6977      6980      6972      6971      6974      6975
      6972      6971      6974      6976      6972      6971      6974      6977
      6973      6971      6974      6975      6973      6971      6974      6976
      6973      6971      6974      6977      6974      6977      6980      6981
      6974      6977      6980      6982      6974      6977      6980      6983
      6975      6974      6977      6978      6975      6974      6977      6979
      6975      6974      6977      6980      6976      6974      6977      6978
      6976      6974      6977      6979      6976      6974      6977      6980
      6977      6980      6983      6984      6977      6980      6983      6985
      6977      6980      6983      6986      6978      6977      6980      6981
      6978      6977      6980      6982      6978      6977      6980      6983
      6979      6977      6980      6981      6979      6977      6980      6982
      6979      6977      6980      6983      6980      6983      6986      6987
      6980      6983      6986      6988      6980      6983      6986      6989
      6981      6980      6983      6984      6981      6980      6983      6985
      6981      6980      6983      6986      6982      6980      6983      6984
      6982      6980      6983      6985      6982      6980      6983      6986
      6984      6983      6986      6987      6984      6983      6986      6988
      6984      6983      6986      6989      6985      6983      6986      6987
      6985      6983      6986      6988      6985      6983      6986      6989
      6990      6993      6996      6997      6990      6993      6996      6998
      6990      6993      6996      6999      6991      6990      6993      6994
      6991      6990      6993      6995      6991      6990      6993      6996
      6992      6990      6993      6994      6992      6990      6993      6995
      6992      6990      6993      6996      6993      6996      6999      7000
      6993      6996      6999      7001      6993      6996      6999      7002
      6994      6993      6996      6997      6994      6993      6996      6998
      6994      6993      6996      6999      6995      6993      6996      6997
      6995      6993      6996      6998      6995      6993      6996      6999
      6996      6999      7002      7003      6996      6999      7002      7004
      6996      6999      7002      7005      6997      6996      6999      7000
      6997      6996      6999      7001      6997      6996      6999      7002
      6998      6996      6999      7000      6998      6996      6999      7001
      6998      6996      6999      7002      6999      7002      7005      7006
      6999      7002      7005      7007      6999      7002      7005      7008
      7000      6999      7002      7003      7000      6999      7002      7004
      7000      6999      7002      7005      7001      6999      7002      7003
      7001      6999      7002      7004      7001      6999      7002      7005
      7002      7005      7008      7009      7002      7005      7008      7010
      7002      7005      7008      7011      7003      7002      7005      7006
      7003      7002      7005      7007      7003      7002      7005      7008
      7004      7002      7005      7006      7004      7002      7005      7007
      7004      7002      7005      7008      7005      7008      7011      7012
      7005      7008      7011      7013      7005      7008      7011      7014
      7006      7005      7008      7009      7006      7005      7008      7010
      7006      7005      7008      7011      7007      7005      7008      7009
      7007      7005      7008      7010      7007      7005      7008      7011
      7008      7011      7014      7015      7008      7011      7014      7016
      7008      7011      7014      7017      7009      7008      7011      7012
      7009      7008      7011      7013      7009      7008      7011      7014
      7010      7008      7011      7012      7010      7008      7011      7013
      7010      7008      7011      7014      7011      7014      7017      7018
      7011      7014      7017      7019      7011      7014      7017      7020
      7012      7011      7014      7015      7012      7011      7014      7016
      7012      7011      7014      7017      7013      7011      7014      7015
      7013      7011      7014      7016      7013      7011      7014      7017
      7014      7017      7020      7021      7014      7017      7020      7022
      7014      7017      7020      7023      7015      7014      7017      7018
      7015      7014      7017      7019      7015      7014      7017      7020
      7016      7014      7017      7018      7016      7014      7017      7019
      7016      7014      7017      7020      7017      7020      7023      7024
      7017      7020      7023      7025      7017      7020      7023      7026
      7018      7017      7020      7021      7018      7017      7020      7022
      7018      7017      7020      7023      7019      7017      7020      7021
      7019      7017      7020      7022      7019      7017      7020      7023
      7020      7023      7026      7027      7020      7023      7026      7028
      7020      7023      7026      7029      7021      7020      7023      7024
      7021      7020      7023      7025      7021      7020      7023      7026
      7022      7020      7023      7024      7022      7020      7023      7025
      7022      7020      7023      7026      7023      7026      7029      7030
      7023      7026      7029      7031      7023      7026      7029      7032
      7024      7023      7026      7027      7024      7023      7026      7028
      7024      7023      7026      7029      7025      7023      7026      7027
      7025      7023      7026      7028      7025      7023      7026      7029
      7027      7026      7029      7030      7027      7026      7029      7031
      7027      7026      7029      7032      7028      7026      7029      7030
      7028      7026      7029      7031      7028      7026      7029      7032
      7033      7034      7049      7050      7033      7034      7049      7051
      7033      7034      7049      7055      7034      7033      7037      7038
      7034      7033      7037      7039      7034      7033      7037      7040
      7034      7033      7041      7042      7034      7033      7041      7043
      7034      7033      7041      7044      7034      7033      7045      7046
      7034      7033      7045      7047      7034      7033      7045      7048
      7034      7049      7055      7052      7035      7034      7033      7037
      7035      7034      7033      7041      7035      7034      7033      7045
      7035      7034      7049      7050      7035      7034      7049      7051
      7035      7034      7049      7055      7036      7034      7033      7037
      7036      7034      7033      7041      7036      7034      7033      7045
      7036      7034      7049      7050      7036      7034      7049      7051
      7036      7034      7049      7055      7037      7033      7034      7049
      7037      7033      7041      7042      7037      7033      7041      7043
      7037      7033      7041      7044      7037      7033      7045      7046
      7037      7033      7045      7047      7037      7033      7045      7048
      7038      7037      7033      7041      7038      7037      7033      7045
      7039      7037      7033      7041      7039      7037      7033      7045
      7040      7037      7033      7041      7040      7037      7033      7045
      7041      7033      7034      7049      7041      7033      7045      7046
      7041      7033      7045      7047      7041      7033      7045      7048
      7042      7041      7033      7045      7043      7041      7033      7045
      7044      7041      7033      7045      7045      7033      7034      7049
      7049      7055      7052      7053      7049      7055      7052      7054
      7049      7055      7052      7056      7050      7049      7055      7052
      7051      7049      7055      7052      7052      7056      7057      7058
      7052      7056      7057      7059      7052      7056      7057      7060
      7053      7052      7056      7057      7054      7052      7056      7057
      7055      7052      7056      7057      7056      7057      7060      7061
      7056      7057      7060      7062      7056      7057      7060      7068
      7057      7060      7062      7063      7057      7060      7068      7069
      7057      7060      7068      7070      7057      7060      7068      7071
      7058      7057      7060      7061      7058      7057      7060      7062
      7058      7057      7060      7068      7059      7057      7060      7061
      7059      7057      7060      7062      7059      7057      7060      7068
      7060      7062      7063      7064      7060      7062      7063      7065
      7060      7068      7071      7072      7061      7060      7062      7063
      7061      7060      7068      7069      7061      7060      7068      7070
      7061      7060      7068      7071      7062      7060      7068      7069
      7062      7060      7068      7070      7062      7060      7068      7071
      7062      7063      7065      7066      7062      7063      7065      7067
      7062      7063      7065      7077      7063      7062      7060      7068
      7063      7065      7077      7078      7063      7065      7077      7079
      7063      7065      7077      7080      7064      7063      7065      7066
      7064      7063      7065      7067      7064      7063      7065      7077
      7065      7077      7080      7081      7065      7077      7080      7082
      7065      7077      7080      7083      7066      7065      7077      7078
      7066      7065      7077      7079      7066      7065      7077      7080
      7067      7065      7077      7078      7067      7065      7077      7079
      7067      7065      7077      7080      7068      7071      7072      7073
      7068      7071      7072      7074      7069      7068      7071      7072
      7070      7068      7071      7072      7071      7072      7074      7075
      7071      7072      7074      7076      7071      7072      7074      7124
      7072      7074      7124      7125      7072      7074      7124      7126
      7072      7074      7124      7127      7073      7072      7074      7075
      7073      7072      7074      7076      7073      7072      7074      7124
      7074      7124      7127      7128      7074      7124      7127      7129
      7074      7124      7127      7130      7075      7074      7124      7125
      7075      7074      7124      7126      7075      7074      7124      7127
      7076      7074      7124      7125      7076      7074      7124      7126
      7076      7074      7124      7127      7077      7080      7083      7084
      7077      7080      7083      7085      7077      7080      7083      7086
      7078      7077      7080      7081      7078      7077      7080      7082
      7078      7077      7080      7083      7079      7077      7080      7081
      7079      7077      7080      7082      7079      7077      7080      7083
      7080      7083      7086      7087      7080      7083      7086      7088
      7080      7083      7086      7089      7081      7080      7083      7084
      7081      7080      7083      7085      7081      7080      7083      7086
      7082      7080      7083      7084      7082      7080      7083      7085
      7082      7080      7083      7086      7083      7086      7089      7090
      7083      7086      7089      7091      7083      7086      7089      7092
      7084      7083      7086      7087      7084      7083      7086      7088
      7084      7083      7086      7089      7085      7083      7086      7087
      7085      7083      7086      7088      7085      7083      7086      7089
      7086      7089      7092      7093      7086      7089      7092      7094
      7086      7089      7092      7095      7087      7086      7089      7090
      7087      7086      7089      7091      7087      7086      7089      7092
      7088      7086      7089      7090      7088      7086      7089      7091
      7088      7086      7089      7092      7089      7092      7095      7096
      7089      7092      7095      7097      7090      7089      7092      7093
      7090      7089      7092      7094      7090      7089      7092      7095
      7091      7089      7092      7093      7091      7089      7092      7094
      7091      7089      7092      7095      7092      7095      7097      7098
      7092      7095      7097      7099      7093      7092      7095      7096
      7093      7092      7095      7097      7094      7092      7095      7096
      7094      7092      7095      7097      7095      7097      7099      7100
      7095      7097      7099      7101      7095      7097      7099      7102
      7096      7095      7097      7098      7096      7095      7097      7099
      7097      7099      7102      7103      7097      7099      7102      7104
      7097      7099      7102      7105      7098      7097      7099      7100
      7098      7097      7099      7101      7098      7097      7099      7102
      7099      7102      7105      7106      7099      7102      7105      7107
      7099      7102      7105      7108      7100      7099      7102      7103
      7100      7099      7102      7104      7100      7099      7102      7105
      7101      7099      7102      7103      7101      7099      7102      7104
      7101      7099      7102      7105      7102      7105      7108      7109
      7102      7105      7108      7110      7102      7105      7108      7111
      7103      7102      7105      7106      7103      7102      7105      7107
      7103      7102      7105      7108      7104      7102      7105      7106
      7104      7102      7105      7107      7104      7102      7105      7108
      7105      7108      7111      7112      7105      7108      7111      7113
      7105      7108      7111      7114      7106      7105      7108      7109
      7106      7105      7108      7110      7106      7105      7108      7111
      7107      7105      7108      7109      7107      7105      7108      7110
      7107      7105      7108      7111      7108      7111      7114      7115
      7108      7111      7114      7116      7108      7111      7114      7117
      7109      7108      7111      7112      7109      7108      7111      7113
      7109      7108      7111      7114      7110      7108      7111      7112
      7110      7108      7111      7113      7110      7108      7111      7114
      7111      7114      7117      7118      7111      7114      7117      7119
      7111      7114      7117      7120      7112      7111      7114      7115
      7112      7111      7114      7116      7112      7111      7114      7117
      7113      7111      7114      7115      7113      7111      7114      7116
      7113      7111      7114      7117      7114      7117      7120      7121
      7114      7117      7120      7122      7114      7117      7120      7123
      7115      7114      7117      7118      7115      7114      7117      7119
      7115      7114      7117      7120      7116      7114      7117      7118
      7116      7114      7117      7119      7116      7114      7117      7120
      7118      7117      7120      7121      7118      7117      7120      7122
      7118      7117      7120      7123      7119      7117      7120      7121
      7119      7117      7120      7122      7119      7117      7120      7123
      7124      7127      7130      7131      7124      7127      7130      7132
      7124      7127      7130      7133      7125      7124      7127      7128
      7125      7124      7127      7129      7125      7124      7127      7130
      7126      7124      7127      7128      7126      7124      7127      7129
      7126      7124      7127      7130      7127      7130      7133      7134
      7127      7130      7133      7135      7127      7130      7133      7136
      7128      7127      7130      7131      7128      7127      7130      7132
      7128      7127      7130      7133      7129      7127      7130      7131
      7129      7127      7130      7132      7129      7127      7130      7133
      7130      7133      7136      7137      7130      7133      7136      7138
      7130      7133      7136      7139      7131      7130      7133      7134
      7131      7130      7133      7135      7131      7130      7133      7136
      7132      7130      7133      7134      7132      7130      7133      7135
      7132      7130      7133      7136      7133      7136      7139      7140
      7133      7136      7139      7141      7133      7136      7139      7142
      7134      7133      7136      7137      7134      7133      7136      7138
      7134      7133      7136      7139      7135      7133      7136      7137
      7135      7133      7136      7138      7135      7133      7136      7139
      7136      7139      7142      7143      7136      7139      7142      7144
      7136      7139      7142      7145      7137      7136      7139      7140
      7137      7136      7139      7141      7137      7136      7139      7142
      7138      7136      7139      7140      7138      7136      7139      7141
      7138      7136      7139      7142      7139      7142      7145      7146
      7139      7142      7145      7147      7139      7142      7145      7148
      7140      7139      7142      7143      7140      7139      7142      7144
      7140      7139      7142      7145      7141      7139      7142      7143
      7141      7139      7142      7144      7141      7139      7142      7145
      7142      7145      7148      7149      7142      7145      7148      7150
      7142      7145      7148      7151      7143      7142      7145      7146
      7143      7142      7145      7147      7143      7142      7145      7148
      7144      7142      7145      7146      7144      7142      7145      7147
      7144      7142      7145      7148      7145      7148      7151      7152
      7145      7148      7151      7153      7145      7148      7151      7154
      7146      7145      7148      7149      7146      7145      7148      7150
      7146      7145      7148      7151      7147      7145      7148      7149
      7147      7145      7148      7150      7147      7145      7148      7151
      7148      7151      7154      7155      7148      7151      7154      7156
      7148      7151      7154      7157      7149      7148      7151      7152
      7149      7148      7151      7153      7149      7148      7151      7154
      7150      7148      7151      7152      7150      7148      7151      7153
      7150      7148      7151      7154      7151      7154      7157      7158
      7151      7154      7157      7159      7151      7154      7157      7160
      7152      7151      7154      7155      7152      7151      7154      7156
      7152      7151      7154      7157      7153      7151      7154      7155
      7153      7151      7154      7156      7153      7151      7154      7157
      7154      7157      7160      7161      7154      7157      7160      7162
      7154      7157      7160      7163      7155      7154      7157      7158
      7155      7154      7157      7159      7155      7154      7157      7160
      7156      7154      7157      7158      7156      7154      7157      7159
      7156      7154      7157      7160      7157      7160      7163      7164
      7157      7160      7163      7165      7157      7160      7163      7166
      7158      7157      7160      7161      7158      7157      7160      7162
      7158      7157      7160      7163      7159      7157      7160      7161
      7159      7157      7160      7162      7159      7157      7160      7163
      7161      7160      7163      7164      7161      7160      7163      7165
      7161      7160      7163      7166      7162      7160      7163      7164
      7162      7160      7163      7165      7162      7160      7163      7166
      7167      7171      7173      7174      7167      7171      7173      7175
      7167      7171      7176      7177      7167      7171      7176      7178
      7167      7171      7176      7182      7168      7167      7171      7172
      7168      7167      7171      7173      7168      7167      7171      7176
      7169      7167      7171      7172      7169      7167      7171      7173
      7169      7167      7171      7176      7170      7167      7171      7172
      7170      7167      7171      7173      7170      7167      7171      7176
      7171      7176      7182      7179      7172      7171      7173      7174
      7172      7171      7173      7175      7172      7171      7176      7177
      7172      7171      7176      7178      7172      7171      7176      7182
      7173      7171      7176      7177      7173      7171      7176      7178
      7173      7171      7176      7182      7174      7173      7171      7176
      7175      7173      7171      7176      7176      7182      7179      7180
      7176      7182      7179      7181      7176      7182      7179      7183
      7177      7176      7182      7179      7178      7176      7182      7179
      7179      7183      7184      7185      7179      7183      7184      7186
      7179      7183      7184      7187      7180      7179      7183      7184
      7181      7179      7183      7184      7182      7179      7183      7184
      7183      7184      7187      7188      7183      7184      7187      7189
      7183      7184      7187      7195      7184      7187      7189      7190
      7184      7187      7195      7196      7184      7187      7195      7197
      7184      7187      7195      7198      7185      7184      7187      7188
      7185      7184      7187      7189      7185      7184      7187      7195
      7186      7184      7187      7188      7186      7184      7187      7189
      7186      7184      7187      7195      7187      7189      7190      7191
      7187      7189      7190      7192      7187      7195      7198      7199
      7188      7187      7189      7190      7188      7187      7195      7196
      7188      7187      7195      7197      7188      7187      7195      7198
      7189      7187      7195      7196      7189      7187      7195      7197
      7189      7187      7195      7198      7189      7190      7192      7193
      7189      7190      7192      7194      7189      7190      7192      7204
      7190      7189      7187      7195      7190      7192      7204      7205
      7190      7192      7204      7206      7190      7192      7204      7207
      7191      7190      7192      7193      7191      7190      7192      7194
      7191      7190      7192      7204      7192      7204      7207      7208
      7192      7204      7207      7209      7192      7204      7207      7210
      7193      7192      7204      7205      7193      7192      7204      7206
      7193      7192      7204      7207      7194      7192      7204      7205
      7194      7192      7204      7206      7194      7192      7204      7207
      7195      7198      7199      7200      7195      7198      7199      7201
      7196      7195      7198      7199      7197      7195      7198      7199
      7198      7199      7201      7202      7198      7199      7201      7203
      7198      7199      7201      7251      7199      7201      7251      7252
      7199      7201      7251      7253      7199      7201      7251      7254
      7200      7199      7201      7202      7200      7199      7201      7203
      7200      7199      7201      7251      7201      7251      7254      7255
      7201      7251      7254      7256      7201      7251      7254      7257
      7202      7201      7251      7252      7202      7201      7251      7253
      7202      7201      7251      7254      7203      7201      7251      7252
      7203      7201      7251      7253      7203      7201      7251      7254
      7204      7207      7210      7211      7204      7207      7210      7212
      7204      7207      7210      7213      7205      7204      7207      7208
      7205      7204      7207      7209      7205      7204      7207      7210
      7206      7204      7207      7208      7206      7204      7207      7209
      7206      7204      7207      7210      7207      7210      7213      7214
      7207      7210      7213      7215      7207      7210      7213      7216
      7208      7207      7210      7211      7208      7207      7210      7212
      7208      7207      7210      7213      7209      7207      7210      7211
      7209      7207      7210      7212      7209      7207      7210      7213
      7210      7213      7216      7217      7210      7213      7216      7218
      7210      7213      7216      7219      7211      7210      7213      7214
      7211      7210      7213      7215      7211      7210      7213      7216
      7212      7210      7213      7214      7212      7210      7213      7215
      7212      7210      7213      7216      7213      7216      7219      7220
      7213      7216      7219      7221      7213      7216      7219      7222
      7214      7213      7216      7217      7214      7213      7216      7218
      7214      7213      7216      7219      7215      7213      7216      7217
      7215      7213      7216      7218      7215      7213      7216      7219
      7216      7219      7222      7223      7216      7219      7222      7224
      7217      7216      7219      7220      7217      7216      7219      7221
      7217      7216      7219      7222      7218      7216      7219      7220
      7218      7216      7219      7221      7218      7216      7219      7222
      7219      7222      7224      7225      7219      7222      7224      7226
      7220      7219      7222      7223      7220      7219      7222      7224
      7221      7219      7222      7223      7221      7219      7222      7224
      7222      7224      7226      7227      7222      7224      7226      7228
      7222      7224      7226      7229      7223      7222      7224      7225
      7223      7222      7224      7226      7224      7226      7229      7230
      7224      7226      7229      7231      7224      7226      7229      7232
      7225      7224      7226      7227      7225      7224      7226      7228
      7225      7224      7226      7229      7226      7229      7232      7233
      7226      7229      7232      7234      7226      7229      7232      7235
      7227      7226      7229      7230      7227      7226      7229      7231
      7227      7226      7229      7232      7228      7226      7229      7230
      7228      7226      7229      7231      7228      7226      7229      7232
      7229      7232      7235      7236      7229      7232      7235      7237
      7229      7232      7235      7238      7230      7229      7232      7233
      7230      7229      7232      7234      7230      7229      7232      7235
      7231      7229      7232      7233      7231      7229      7232      7234
      7231      7229      7232      7235      7232      7235      7238      7239
      7232      7235      7238      7240      7232      7235      7238      7241
      7233      7232      7235      7236      7233      7232      7235      7237
      7233      7232      7235      7238      7234      7232      7235      7236
      7234      7232      7235      7237      7234      7232      7235      7238
      7235      7238      7241      7242      7235      7238      7241      7243
      7235      7238      7241      7244      7236      7235      7238      7239
      7236      7235      7238      7240      7236      7235      7238      7241
      7237      7235      7238      7239      7237      7235      7238      7240
      7237      7235      7238      7241      7238      7241      7244      7245
      7238      7241      7244      7246      7238      7241      7244      7247
      7239      7238      7241      7242      7239      7238      7241      7243
      7239      7238      7241      7244      7240      7238      7241      7242
      7240      7238      7241      7243      7240      7238      7241      7244
      7241      7244      7247      7248      7241      7244      7247      7249
      7241      7244      7247      7250      7242      7241      7244      7245
      7242      7241      7244      7246      7242      7241      7244      7247
      7243      7241      7244      7245      7243      7241      7244      7246
      7243      7241      7244      7247      7245      7244      7247      7248
      7245      7244      7247      7249      7245      7244      7247      7250
      7246      7244      7247      7248      7246      7244      7247      7249
      7246      7244      7247      7250      7251      7254      7257      7258
      7251      7254      7257      7259      7251      7254      7257      7260
      7252      7251      7254      7255      7252      7251      7254      7256
      7252      7251      7254      7257      7253      7251      7254      7255
      7253      7251      7254      7256      7253      7251      7254      7257
      7254      7257      7260      7261      7254      7257      7260      7262
      7254      7257      7260      7263      7255      7254      7257      7258
      7255      7254      7257      7259      7255      7254      7257      7260
      7256      7254      7257      7258      7256      7254      7257      7259
      7256      7254      7257      7260      7257      7260      7263      7264
      7257      7260      7263      7265      7257      7260      7263      7266
      7258      7257      7260      7261      7258      7257      7260      7262
      7258      7257      7260      7263      7259      7257      7260      7261
      7259      7257      7260      7262      7259      7257      7260      7263
      7260      7263      7266      7267      7260      7263      7266      7268
      7260      7263      7266      7269      7261      7260      7263      7264
      7261      7260      7263      7265      7261      7260      7263      7266
      7262      7260      7263      7264      7262      7260      7263      7265
      7262      7260      7263      7266      7263      7266      7269      7270
      7263      7266      7269      7271      7263      7266      7269      7272
      7264      7263      7266      7267      7264      7263      7266      7268
      7264      7263      7266      7269      7265      7263      7266      7267
      7265      7263      7266      7268      7265      7263      7266      7269
      7266      7269      7272      7273      7266      7269      7272      7274
      7266      7269      7272      7275      7267      7266      7269      7270
      7267      7266      7269      7271      7267      7266      7269      7272
      7268      7266      7269      7270      7268      7266      7269      7271
      7268      7266      7269      7272      7269      7272      7275      7276
      7269      7272      7275      7277      7269      7272      7275      7278
      7270      7269      7272      7273      7270      7269      7272      7274
      7270      7269      7272      7275      7271      7269      7272      7273
      7271      7269      7272      7274      7271      7269      7272      7275
      7272      7275      7278      7279      7272      7275      7278      7280
      7272      7275      7278      7281      7273      7272      7275      7276
      7273      7272      7275      7277      7273      7272      7275      7278
      7274      7272      7275      7276      7274      7272      7275      7277
      7274      7272      7275      7278      7275      7278      7281      7282
      7275      7278      7281      7283      7275      7278      7281      7284
      7276      7275      7278      7279      7276      7275      7278      7280
      7276      7275      7278      7281      7277      7275      7278      7279
      7277      7275      7278      7280      7277      7275      7278      7281
      7278      7281      7284      7285      7278      7281      7284      7286
      7278      7281      7284      7287      7279      7278      7281      7282
      7279      7278      7281      7283      7279      7278      7281      7284
      7280      7278      7281      7282      7280      7278      7281      7283
      7280      7278      7281      7284      7281      7284      7287      7288
      7281      7284      7287      7289      7281      7284      7287      7290
      7282      7281      7284      7285      7282      7281      7284      7286
      7282      7281      7284      7287      7283      7281      7284      7285
      7283      7281      7284      7286      7283      7281      7284      7287
      7284      7287      7290      7291      7284      7287      7290      7292
      7284      7287      7290      7293      7285      7284      7287      7288
      7285      7284      7287      7289      7285      7284      7287      7290
      7286      7284      7287      7288      7286      7284      7287      7289
      7286      7284      7287      7290      7288      7287      7290      7291
      7288      7287      7290      7292      7288      7287      7290      7293
      7289      7287      7290      7291      7289      7287      7290      7292
      7289      7287      7290      7293      7294      7295      7310      7311
      7294      7295      7310      7312      7294      7295      7310      7316
      7295      7294      7298      7299      7295      7294      7298      7300
      7295      7294      7298      7301      7295      7294      7302      7303
      7295      7294      7302      7304      7295      7294      7302      7305
      7295      7294      7306      7307      7295      7294      7306      7308
      7295      7294      7306      7309      7295      7310      7316      7313
      7296      7295      7294      7298      7296      7295      7294      7302
      7296      7295      7294      7306      7296      7295      7310      7311
      7296      7295      7310      7312      7296      7295      7310      7316
      7297      7295      7294      7298      7297      7295      7294      7302
      7297      7295      7294      7306      7297      7295      7310      7311
      7297      7295      7310      7312      7297      7295      7310      7316
      7298      7294      7295      7310      7298      7294      7302      7303
      7298      7294      7302      7304      7298      7294      7302      7305
      7298      7294      7306      7307      7298      7294      7306      7308
      7298      7294      7306      7309      7299      7298      7294      7302
      7299      7298      7294      7306      7300      7298      7294      7302
      7300      7298      7294      7306      7301      7298      7294      7302
      7301      7298      7294      7306      7302      7294      7295      7310
      7302      7294      7306      7307      7302      7294      7306      7308
      7302      7294      7306      7309      7303      7302      7294      7306
      7304      7302      7294      7306      7305      7302      7294      7306
      7306      7294      7295      7310      7310      7316      7313      7314
      7310      7316      7313      7315      7310      7316      7313      7317
      7311      7310      7316      7313      7312      7310      7316      7313
      7313      7317      7318      7319      7313      7317      7318      7320
      7313      7317      7318      7321      7314      7313      7317      7318
      7315      7313      7317      7318      7316      7313      7317      7318
      7317      7318      7321      7322      7317      7318      7321      7323
      7317      7318      7321      7329      7318      7321      7323      7324
      7318      7321      7329      7330      7318      7321      7329      7331
      7318      7321      7329      7332      7319      7318      7321      7322
      7319      7318      7321      7323      7319      7318      7321      7329
      7320      7318      7321      7322      7320      7318      7321      7323
      7320      7318      7321      7329      7321      7323      7324      7325
      7321      7323      7324      7326      7321      7329      7332      7333
      7322      7321      7323      7324      7322      7321      7329      7330
      7322      7321      7329      7331      7322      7321      7329      7332
      7323      7321      7329      7330      7323      7321      7329      7331
      7323      7321      7329      7332      7323      7324      7326      7327
      7323      7324      7326      7328      7323      7324      7326      7338
      7324      7323      7321      7329      7324      7326      7338      7339
      7324      7326      7338      7340      7324      7326      7338      7341
      7325      7324      7326      7327      7325      7324      7326      7328
      7325      7324      7326      7338      7326      7338      7341      7342
      7326      7338      7341      7343      7326      7338      7341      7344
      7327      7326      7338      7339      7327      7326      7338      7340
      7327      7326      7338      7341      7328      7326      7338      7339
      7328      7326      7338      7340      7328      7326      7338      7341
      7329      7332      7333      7334      7329      7332      7333      7335
      7330      7329      7332      7333      7331      7329      7332      7333
      7332      7333      7335      7336      7332      7333      7335      7337
      7332      7333      7335      7385      7333      7335      7385      7386
      7333      7335      7385      7387      7333      7335      7385      7388
      7334      7333      7335      7336      7334      7333      7335      7337
      7334      7333      7335      7385      7335      7385      7388      7389
      7335      7385      7388      7390      7335      7385      7388      7391
      7336      7335      7385      7386      7336      7335      7385      7387
      7336      7335      7385      7388      7337      7335      7385      7386
      7337      7335      7385      7387      7337      7335      7385      7388
      7338      7341      7344      7345      7338      7341      7344      7346
      7338      7341      7344      7347      7339      7338      7341      7342
      7339      7338      7341      7343      7339      7338      7341      7344
      7340      7338      7341      7342      7340      7338      7341      7343
      7340      7338      7341      7344      7341      7344      7347      7348
      7341      7344      7347      7349      7341      7344      7347      7350
      7342      7341      7344      7345      7342      7341      7344      7346
      7342      7341      7344      7347      7343      7341      7344      7345
      7343      7341      7344      7346      7343      7341      7344      7347
      7344      7347      7350      7351      7344      7347      7350      7352
      7344      7347      7350      7353      7345      7344      7347      7348
      7345      7344      7347      7349      7345      7344      7347      7350
      7346      7344      7347      7348      7346      7344      7347      7349
      7346      7344      7347      7350      7347      7350      7353      7354
      7347      7350      7353      7355      7347      7350      7353      7356
      7348      7347      7350      7351      7348      7347      7350      7352
      7348      7347      7350      7353      7349      7347      7350      7351
      7349      7347      7350      7352      7349      7347      7350      7353
      7350      7353      7356      7357      7350      7353      7356      7358
      7351      7350      7353      7354      7351      7350      7353      7355
      7351      7350      7353      7356      7352      7350      7353      7354
      7352      7350      7353      7355      7352      7350      7353      7356
      7353      7356      7358      7359      7353      7356      7358      7360
      7354      7353      7356      7357      7354      7353      7356      7358
      7355      7353      7356      7357      7355      7353      7356      7358
      7356      7358      7360      7361      7356      7358      7360      7362
      7356      7358      7360      7363      7357      7356      7358      7359
      7357      7356      7358      7360      7358      7360      7363      7364
      7358      7360      7363      7365      7358      7360      7363      7366
      7359      7358      7360      7361      7359      7358      7360      7362
      7359      7358      7360      7363      7360      7363      7366      7367
      7360      7363      7366      7368      7360      7363      7366      7369
      7361      7360      7363      7364      7361      7360      7363      7365
      7361      7360      7363      7366      7362      7360      7363      7364
      7362      7360      7363      7365      7362      7360      7363      7366
      7363      7366      7369      7370      7363      7366      7369      7371
      7363      7366      7369      7372      7364      7363      7366      7367
      7364      7363      7366      7368      7364      7363      7366      7369
      7365      7363      7366      7367      7365      7363      7366      7368
      7365      7363      7366      7369      7366      7369      7372      7373
      7366      7369      7372      7374      7366      7369      7372      7375
      7367      7366      7369      7370      7367      7366      7369      7371
      7367      7366      7369      7372      7368      7366      7369      7370
      7368      7366      7369      7371      7368      7366      7369      7372
      7369      7372      7375      7376      7369      7372      7375      7377
      7369      7372      7375      7378      7370      7369      7372      7373
      7370      7369      7372      7374      7370      7369      7372      7375
      7371      7369      7372      7373      7371      7369      7372      7374
      7371      7369      7372      7375      7372      7375      7378      7379
      7372      7375      7378      7380      7372      7375      7378      7381
      7373      7372      7375      7376      7373      7372      7375      7377
      7373      7372      7375      7378      7374      7372      7375      7376
      7374      7372      7375      7377      7374      7372      7375      7378
      7375      7378      7381      7382      7375      7378      7381      7383
      7375      7378      7381      7384      7376      7375      7378      7379
      7376      7375      7378      7380      7376      7375      7378      7381
      7377      7375      7378      7379      7377      7375      7378      7380
      7377      7375      7378      7381      7379      7378      7381      7382
      7379      7378      7381      7383      7379      7378      7381      7384
      7380      7378      7381      7382      7380      7378      7381      7383
      7380      7378      7381      7384      7385      7388      7391      7392
      7385      7388      7391      7393      7385      7388      7391      7394
      7386      7385      7388      7389      7386      7385      7388      7390
      7386      7385      7388      7391      7387      7385      7388      7389
      7387      7385      7388      7390      7387      7385      7388      7391
      7388      7391      7394      7395      7388      7391      7394      7396
      7388      7391      7394      7397      7389      7388      7391      7392
      7389      7388      7391      7393      7389      7388      7391      7394
      7390      7388      7391      7392      7390      7388      7391      7393
      7390      7388      7391      7394      7391      7394      7397      7398
      7391      7394      7397      7399      7391      7394      7397      7400
      7392      7391      7394      7395      7392      7391      7394      7396
      7392      7391      7394      7397      7393      7391      7394      7395
      7393      7391      7394      7396      7393      7391      7394      7397
      7394      7397      7400      7401      7394      7397      7400      7402
      7394      7397      7400      7403      7395      7394      7397      7398
      7395      7394      7397      7399      7395      7394      7397      7400
      7396      7394      7397      7398      7396      7394      7397      7399
      7396      7394      7397      7400      7397      7400      7403      7404
      7397      7400      7403      7405      7397      7400      7403      7406
      7398      7397      7400      7401      7398      7397      7400      7402
      7398      7397      7400      7403      7399      7397      7400      7401
      7399      7397      7400      7402      7399      7397      7400      7403
      7400      7403      7406      7407      7400      7403      7406      7408
      7400      7403      7406      7409      7401      7400      7403      7404
      7401      7400      7403      7405      7401      7400      7403      7406
      7402      7400      7403      7404      7402      7400      7403      7405
      7402      7400      7403      7406      7403      7406      7409      7410
      7403      7406      7409      7411      7403      7406      7409      7412
      7404      7403      7406      7407      7404      7403      7406      7408
      7404      7403      7406      7409      7405      7403      7406      7407
      7405      7403      7406      7408      7405      7403      7406      7409
      7406      7409      7412      7413      7406      7409      7412      7414
      7406      7409      7412      7415      7407      7406      7409      7410
      7407      7406      7409      7411      7407      7406      7409      7412
      7408      7406      7409      7410      7408      7406      7409      7411
      7408      7406      7409      7412      7409      7412      7415      7416
      7409      7412      7415      7417      7409      7412      7415      7418
      7410      7409      7412      7413      7410      7409      7412      7414
      7410      7409      7412      7415      7411      7409      7412      7413
      7411      7409      7412      7414      7411      7409      7412      7415
      7412      7415      7418      7419      7412      7415      7418      7420
      7412      7415      7418      7421      7413      7412      7415      7416
      7413      7412      7415      7417      7413      7412      7415      7418
      7414      7412      7415      7416      7414      7412      7415      7417
      7414      7412      7415      7418      7415      7418      7421      7422
      7415      7418      7421      7423      7415      7418      7421      7424
      7416      7415      7418      7419      7416      7415      7418      7420
      7416      7415      7418      7421      7417      7415      7418      7419
      7417      7415      7418      7420      7417      7415      7418      7421
      7418      7421      7424      7425      7418      7421      7424      7426
      7418      7421      7424      7427      7419      7418      7421      7422
      7419      7418      7421      7423      7419      7418      7421      7424
      7420      7418      7421      7422      7420      7418      7421      7423
      7420      7418      7421      7424      7422      7421      7424      7425
      7422      7421      7424      7426      7422      7421      7424      7427
      7423      7421      7424      7425      7423      7421      7424      7426
      7423      7421      7424      7427      7428      7429      7444      7445
      7428      7429      7444      7446      7428      7429      7444      7450
      7429      7428      7432      7433      7429      7428      7432      7434
      7429      7428      7432      7435      7429      7428      7436      7437
      7429      7428      7436      7438      7429      7428      7436      7439
      7429      7428      7440      7441      7429      7428      7440      7442
      7429      7428      7440      7443      7429      7444      7450      7447
      7430      7429      7428      7432      7430      7429      7428      7436
      7430      7429      7428      7440      7430      7429      7444      7445
      7430      7429      7444      7446      7430      7429      7444      7450
      7431      7429      7428      7432      7431      7429      7428      7436
      7431      7429      7428      7440      7431      7429      7444      7445
      7431      7429      7444      7446      7431      7429      7444      7450
      7432      7428      7429      7444      7432      7428      7436      7437
      7432      7428      7436      7438      7432      7428      7436      7439
      7432      7428      7440      7441      7432      7428      7440      7442
      7432      7428      7440      7443      7433      7432      7428      7436
      7433      7432      7428      7440      7434      7432      7428      7436
      7434      7432      7428      7440      7435      7432      7428      7436
      7435      7432      7428      7440      7436      7428      7429      7444
      7436      7428      7440      7441      7436      7428      7440      7442
      7436      7428      7440      7443      7437      7436      7428      7440
      7438      7436      7428      7440      7439      7436      7428      7440
      7440      7428      7429      7444      7444      7450      7447      7448
      7444      7450      7447      7449      7444      7450      7447      7451
      7445      7444      7450      7447      7446      7444      7450      7447
      7447      7451      7452      7453      7447      7451      7452      7454
      7447      7451      7452      7455      7448      7447      7451      7452
      7449      7447      7451      7452      7450      7447      7451      7452
      7451      7452      7455      7456      7451      7452      7455      7457
      7451      7452      7455      7463      7452      7455      7457      7458
      7452      7455      7463      7464      7452      7455      7463      7465
      7452      7455      7463      7466      7453      7452      7455      7456
      7453      7452      7455      7457      7453      7452      7455      7463
      7454      7452      7455      7456      7454      7452      7455      7457
      7454      7452      7455      7463      7455      7457      7458      7459
      7455      7457      7458      7460      7455      7463      7466      7467
      7456      7455      7457      7458      7456      7455      7463      7464
      7456      7455      7463      7465      7456      7455      7463      7466
      7457      7455      7463      7464      7457      7455      7463      7465
      7457      7455      7463      7466      7457      7458      7460      7461
      7457      7458      7460      7462      7457      7458      7460      7472
      7458      7457      7455      7463      7458      7460      7472      7473
      7458      7460      7472      7474      7458      7460      7472      7475
      7459      7458      7460      7461      7459      7458      7460      7462
      7459      7458      7460      7472      7460      7472      7475      7476
      7460      7472      7475      7477      7460      7472      7475      7478
      7461      7460      7472      7473      7461      7460      7472      7474
      7461      7460      7472      7475      7462      7460      7472      7473
      7462      7460      7472      7474      7462      7460      7472      7475
      7463      7466      7467      7468      7463      7466      7467      7469
      7464      7463      7466      7467      7465      7463      7466      7467
      7466      7467      7469      7470      7466      7467      7469      7471
      7466      7467      7469      7519      7467      7469      7519      7520
      7467      7469      7519      7521      7467      7469      7519      7522
      7468      7467      7469      7470      7468      7467      7469      7471
      7468      7467      7469      7519      7469      7519      7522      7523
      7469      7519      7522      7524      7469      7519      7522      7525
      7470      7469      7519      7520      7470      7469      7519      7521
      7470      7469      7519      7522      7471      7469      7519      7520
      7471      7469      7519      7521      7471      7469      7519      7522
      7472      7475      7478      7479      7472      7475      7478      7480
      7472      7475      7478      7481      7473      7472      7475      7476
      7473      7472      7475      7477      7473      7472      7475      7478
      7474      7472      7475      7476      7474      7472      7475      7477
      7474      7472      7475      7478      7475      7478      7481      7482
      7475      7478      7481      7483      7475      7478      7481      7484
      7476      7475      7478      7479      7476      7475      7478      7480
      7476      7475      7478      7481      7477      7475      7478      7479
      7477      7475      7478      7480      7477      7475      7478      7481
      7478      7481      7484      7485      7478      7481      7484      7486
      7478      7481      7484      7487      7479      7478      7481      7482
      7479      7478      7481      7483      7479      7478      7481      7484
      7480      7478      7481      7482      7480      7478      7481      7483
      7480      7478      7481      7484      7481      7484      7487      7488
      7481      7484      7487      7489      7481      7484      7487      7490
      7482      7481      7484      7485      7482      7481      7484      7486
      7482      7481      7484      7487      7483      7481      7484      7485
      7483      7481      7484      7486      7483      7481      7484      7487
      7484      7487      7490      7491      7484      7487      7490      7492
      7485      7484      7487      7488      7485      7484      7487      7489
      7485      7484      7487      7490      7486      7484      7487      7488
      7486      7484      7487      7489      7486      7484      7487      7490
      7487      7490      7492      7493      7487      7490      7492      7494
      7488      7487      7490      7491      7488      7487      7490      7492
      7489      7487      7490      7491      7489      7487      7490      7492
      7490      7492      7494      7495      7490      7492      7494      7496
      7490      7492      7494      7497      7491      7490      7492      7493
      7491      7490      7492      7494      7492      7494      7497      7498
      7492      7494      7497      7499      7492      7494      7497      7500
      7493      7492      7494      7495      7493      7492      7494      7496
      7493      7492      7494      7497      7494      7497      7500      7501
      7494      7497      7500      7502      7494      7497      7500      7503
      7495      7494      7497      7498      7495      7494      7497      7499
      7495      7494      7497      7500      7496      7494      7497      7498
      7496      7494      7497      7499      7496      7494      7497      7500
      7497      7500      7503      7504      7497      7500      7503      7505
      7497      7500      7503      7506      7498      7497      7500      7501
      7498      7497      7500      7502      7498      7497      7500      7503
      7499      7497      7500      7501      7499      7497      7500      7502
      7499      7497      7500      7503      7500      7503      7506      7507
      7500      7503      7506      7508      7500      7503      7506      7509
      7501      7500      7503      7504      7501      7500      7503      7505
      7501      7500      7503      7506      7502      7500      7503      7504
      7502      7500      7503      7505      7502      7500      7503      7506
      7503      7506      7509      7510      7503      7506      7509      7511
      7503      7506      7509      7512      7504      7503      7506      7507
      7504      7503      7506      7508      7504      7503      7506      7509
      7505      7503      7506      7507      7505      7503      7506      7508
      7505      7503      7506      7509      7506      7509      7512      7513
      7506      7509      7512      7514      7506      7509      7512      7515
      7507      7506      7509      7510      7507      7506      7509      7511
      7507      7506      7509      7512      7508      7506      7509      7510
      7508      7506      7509      7511      7508      7506      7509      7512
      7509      7512      7515      7516      7509      7512      7515      7517
      7509      7512      7515      7518      7510      7509      7512      7513
      7510      7509      7512      7514      7510      7509      7512      7515
      7511      7509      7512      7513      7511      7509      7512      7514
      7511      7509      7512      7515      7513      7512      7515      7516
      7513      7512      7515      7517      7513      7512      7515      7518
      7514      7512      7515      7516      7514      7512      7515      7517
      7514      7512      7515      7518      7519      7522      7525      7526
      7519      7522      7525      7527      7519      7522      7525      7528
      7520      7519      7522      7523      7520      7519      7522      7524
      7520      7519      7522      7525      7521      7519      7522      7523
      7521      7519      7522      7524      7521      7519      7522      7525
      7522      7525      7528      7529      7522      7525      7528      7530
      7522      7525      7528      7531      7523      7522      7525      7526
      7523      7522      7525      7527      7523      7522      7525      7528
      7524      7522      7525      7526      7524      7522      7525      7527
      7524      7522      7525      7528      7525      7528      7531      7532
      7525      7528      7531      7533      7525      7528      7531      7534
      7526      7525      7528      7529      7526      7525      7528      7530
      7526      7525      7528      7531      7527      7525      7528      7529
      7527      7525      7528      7530      7527      7525      7528      7531
      7528      7531      7534      7535      7528      7531      7534      7536
      7528      7531      7534      7537      7529      7528      7531      7532
      7529      7528      7531      7533      7529      7528      7531      7534
      7530      7528      7531      7532      7530      7528      7531      7533
      7530      7528      7531      7534      7531      7534      7537      7538
      7531      7534      7537      7539      7531      7534      7537      7540
      7532      7531      7534      7535      7532      7531      7534      7536
      7532      7531      7534      7537      7533      7531      7534      7535
      7533      7531      7534      7536      7533      7531      7534      7537
      7534      7537      7540      7541      7534      7537      7540      7542
      7534      7537      7540      7543      7535      7534      7537      7538
      7535      7534      7537      7539      7535      7534      7537      7540
      7536      7534      7537      7538      7536      7534      7537      7539
      7536      7534      7537      7540      7537      7540      7543      7544
      7537      7540      7543      7545      7537      7540      7543      7546
      7538      7537      7540      7541      7538      7537      7540      7542
      7538      7537      7540      7543      7539      7537      7540      7541
      7539      7537      7540      7542      7539      7537      7540      7543
      7540      7543      7546      7547      7540      7543      7546      7548
      7540      7543      7546      7549      7541      7540      7543      7544
      7541      7540      7543      7545      7541      7540      7543      7546
      7542      7540      7543      7544      7542      7540      7543      7545
      7542      7540      7543      7546      7543      7546      7549      7550
      7543      7546      7549      7551      7543      7546      7549      7552
      7544      7543      7546      7547      7544      7543      7546      7548
      7544      7543      7546      7549      7545      7543      7546      7547
      7545      7543      7546      7548      7545      7543      7546      7549
      7546      7549      7552      7553      7546      7549      7552      7554
      7546      7549      7552      7555      7547      7546      7549      7550
      7547      7546      7549      7551      7547      7546      7549      7552
      7548      7546      7549      7550      7548      7546      7549      7551
      7548      7546      7549      7552      7549      7552      7555      7556
      7549      7552      7555      7557      7549      7552      7555      7558
      7550      7549      7552      7553      7550      7549      7552      7554
      7550      7549      7552      7555      7551      7549      7552      7553
      7551      7549      7552      7554      7551      7549      7552      7555
      7552      7555      7558      7559      7552      7555      7558      7560
      7552      7555      7558      7561      7553      7552      7555      7556
      7553      7552      7555      7557      7553      7552      7555      7558
      7554      7552      7555      7556      7554      7552      7555      7557
      7554      7552      7555      7558      7556      7555      7558      7559
      7556      7555      7558      7560      7556      7555      7558      7561
      7557      7555      7558      7559      7557      7555      7558      7560
      7557      7555      7558      7561      7562      7566      7568      7569
      7562      7566      7568      7570      7562      7566      7571      7572
      7562      7566      7571      7573      7562      7566      7571      7577
      7563      7562      7566      7567      7563      7562      7566      7568
      7563      7562      7566      7571      7564      7562      7566      7567
      7564      7562      7566      7568      7564      7562      7566      7571
      7565      7562      7566      7567      7565      7562      7566      7568
      7565      7562      7566      7571      7566      7571      7577      7574
      7567      7566      7568      7569      7567      7566      7568      7570
      7567      7566      7571      7572      7567      7566      7571      7573
      7567      7566      7571      7577      7568      7566      7571      7572
      7568      7566      7571      7573      7568      7566      7571      7577
      7569      7568      7566      7571      7570      7568      7566      7571
      7571      7577      7574      7575      7571      7577      7574      7576
      7571      7577      7574      7578      7572      7571      7577      7574
      7573      7571      7577      7574      7574      7578      7579      7580
      7574      7578      7579      7581      7574      7578      7579      7582
      7575      7574      7578      7579      7576      7574      7578      7579
      7577      7574      7578      7579      7578      7579      7582      7583
      7578      7579      7582      7584      7578      7579      7582      7590
      7579      7582      7584      7585      7579      7582      7590      7591
      7579      7582      7590      7592      7579      7582      7590      7593
      7580      7579      7582      7583      7580      7579      7582      7584
      7580      7579      7582      7590      7581      7579      7582      7583
      7581      7579      7582      7584      7581      7579      7582      7590
      7582      7584      7585      7586      7582      7584      7585      7587
      7582      7590      7593      7594      7583      7582      7584      7585
      7583      7582      7590      7591      7583      7582      7590      7592
      7583      7582      7590      7593      7584      7582      7590      7591
      7584      7582      7590      7592      7584      7582      7590      7593
      7584      7585      7587      7588      7584      7585      7587      7589
      7584      7585      7587      7599      7585      7584      7582      7590
      7585      7587      7599      7600      7585      7587      7599      7601
      7585      7587      7599      7602      7586      7585      7587      7588
      7586      7585      7587      7589      7586      7585      7587      7599
      7587      7599      7602      7603      7587      7599      7602      7604
      7587      7599      7602      7605      7588      7587      7599      7600
      7588      7587      7599      7601      7588      7587      7599      7602
      7589      7587      7599      7600      7589      7587      7599      7601
      7589      7587      7599      7602      7590      7593      7594      7595
      7590      7593      7594      7596      7591      7590      7593      7594
      7592      7590      7593      7594      7593      7594      7596      7597
      7593      7594      7596      7598      7593      7594      7596      7646
      7594      7596      7646      7647      7594      7596      7646      7648
      7594      7596      7646      7649      7595      7594      7596      7597
      7595      7594      7596      7598      7595      7594      7596      7646
      7596      7646      7649      7650      7596      7646      7649      7651
      7596      7646      7649      7652      7597      7596      7646      7647
      7597      7596      7646      7648      7597      7596      7646      7649
      7598      7596      7646      7647      7598      7596      7646      7648
      7598      7596      7646      7649      7599      7602      7605      7606
      7599      7602      7605      7607      7599      7602      7605      7608
      7600      7599      7602      7603      7600      7599      7602      7604
      7600      7599      7602      7605      7601      7599      7602      7603
      7601      7599      7602      7604      7601      7599      7602      7605
      7602      7605      7608      7609      7602      7605      7608      7610
      7602      7605      7608      7611      7603      7602      7605      7606
      7603      7602      7605      7607      7603      7602      7605      7608
      7604      7602      7605      7606      7604      7602      7605      7607
      7604      7602      7605      7608      7605      7608      7611      7612
      7605      7608      7611      7613      7605      7608      7611      7614
      7606      7605      7608      7609      7606      7605      7608      7610
      7606      7605      7608      7611      7607      7605      7608      7609
      7607      7605      7608      7610      7607      7605      7608      7611
      7608      7611      7614      7615      7608      7611      7614      7616
      7608      7611      7614      7617      7609      7608      7611      7612
      7609      7608      7611      7613      7609      7608      7611      7614
      7610      7608      7611      7612      7610      7608      7611      7613
      7610      7608      7611      7614      7611      7614      7617      7618
      7611      7614      7617      7619      7612      7611      7614      7615
      7612      7611      7614      7616      7612      7611      7614      7617
      7613      7611      7614      7615      7613      7611      7614      7616
      7613      7611      7614      7617      7614      7617      7619      7620
      7614      7617      7619      7621      7615      7614      7617      7618
      7615      7614      7617      7619      7616      7614      7617      7618
      7616      7614      7617      7619      7617      7619      7621      7622
      7617      7619      7621      7623      7617      7619      7621      7624
      7618      7617      7619      7620      7618      7617      7619      7621
      7619      7621      7624      7625      7619      7621      7624      7626
      7619      7621      7624      7627      7620      7619      7621      7622
      7620      7619      7621      7623      7620      7619      7621      7624
      7621      7624      7627      7628      7621      7624      7627      7629
      7621      7624      7627      7630      7622      7621      7624      7625
      7622      7621      7624      7626      7622      7621      7624      7627
      7623      7621      7624      7625      7623      7621      7624      7626
      7623      7621      7624      7627      7624      7627      7630      7631
      7624      7627      7630      7632      7624      7627      7630      7633
      7625      7624      7627      7628      7625      7624      7627      7629
      7625      7624      7627      7630      7626      7624      7627      7628
      7626      7624      7627      7629      7626      7624      7627      7630
      7627      7630      7633      7634      7627      7630      7633      7635
      7627      7630      7633      7636      7628      7627      7630      7631
      7628      7627      7630      7632      7628      7627      7630      7633
      7629      7627      7630      7631      7629      7627      7630      7632
      7629      7627      7630      7633      7630      7633      7636      7637
      7630      7633      7636      7638      7630      7633      7636      7639
      7631      7630      7633      7634      7631      7630      7633      7635
      7631      7630      7633      7636      7632      7630      7633      7634
      7632      7630      7633      7635      7632      7630      7633      7636
      7633      7636      7639      7640      7633      7636      7639      7641
      7633      7636      7639      7642      7634      7633      7636      7637
      7634      7633      7636      7638      7634      7633      7636      7639
      7635      7633      7636      7637      7635      7633      7636      7638
      7635      7633      7636      7639      7636      7639      7642      7643
      7636      7639      7642      7644      7636      7639      7642      7645
      7637      7636      7639      7640      7637      7636      7639      7641
      7637      7636      7639      7642      7638      7636      7639      7640
      7638      7636      7639      7641      7638      7636      7639      7642
      7640      7639      7642      7643      7640      7639      7642      7644
      7640      7639      7642      7645      7641      7639      7642      7643
      7641      7639      7642      7644      7641      7639      7642      7645
      7646      7649      7652      7653      7646      7649      7652      7654
      7646      7649      7652      7655      7647      7646      7649      7650
      7647      7646      7649      7651      7647      7646      7649      7652
      7648      7646      7649      7650      7648      7646      7649      7651
      7648      7646      7649      7652      7649      7652      7655      7656
      7649      7652      7655      7657      7649      7652      7655      7658
      7650      7649      7652      7653      7650      7649      7652      7654
      7650      7649      7652      7655      7651      7649      7652      7653
      7651      7649      7652      7654      7651      7649      7652      7655
      7652      7655      7658      7659      7652      7655      7658      7660
      7652      7655      7658      7661      7653      7652      7655      7656
      7653      7652      7655      7657      7653      7652      7655      7658
      7654      7652      7655      7656      7654      7652      7655      7657
      7654      7652      7655      7658      7655      7658      7661      7662
      7655      7658      7661      7663      7655      7658      7661      7664
      7656      7655      7658      7659      7656      7655      7658      7660
      7656      7655      7658      7661      7657      7655      7658      7659
      7657      7655      7658      7660      7657      7655      7658      7661
      7658      7661      7664      7665      7658      7661      7664      7666
      7658      7661      7664      7667      7659      7658      7661      7662
      7659      7658      7661      7663      7659      7658      7661      7664
      7660      7658      7661      7662      7660      7658      7661      7663
      7660      7658      7661      7664      7661      7664      7667      7668
      7661      7664      7667      7669      7661      7664      7667      7670
      7662      7661      7664      7665      7662      7661      7664      7666
      7662      7661      7664      7667      7663      7661      7664      7665
      7663      7661      7664      7666      7663      7661      7664      7667
      7664      7667      7670      7671      7664      7667      7670      7672
      7664      7667      7670      7673      7665      7664      7667      7668
      7665      7664      7667      7669      7665      7664      7667      7670
      7666      7664      7667      7668      7666      7664      7667      7669
      7666      7664      7667      7670      7667      7670      7673      7674
      7667      7670      7673      7675      7667      7670      7673      7676
      7668      7667      7670      7671      7668      7667      7670      7672
      7668      7667      7670      7673      7669      7667      7670      7671
      7669      7667      7670      7672      7669      7667      7670      7673
      7670      7673      7676      7677      7670      7673      7676      7678
      7670      7673      7676      7679      7671      7670      7673      7674
      7671      7670      7673      7675      7671      7670      7673      7676
      7672      7670      7673      7674      7672      7670      7673      7675
      7672      7670      7673      7676      7673      7676      7679      7680
      7673      7676      7679      7681      7673      7676      7679      7682
      7674      7673      7676      7677      7674      7673      7676      7678
      7674      7673      7676      7679      7675      7673      7676      7677
      7675      7673      7676      7678      7675      7673      7676      7679
      7676      7679      7682      7683      7676      7679      7682      7684
      7676      7679      7682      7685      7677      7676      7679      7680
      7677      7676      7679      7681      7677      7676      7679      7682
      7678      7676      7679      7680      7678      7676      7679      7681
      7678      7676      7679      7682      7679      7682      7685      7686
      7679      7682      7685      7687      7679      7682      7685      7688
      7680      7679      7682      7683      7680      7679      7682      7684
      7680      7679      7682      7685      7681      7679      7682      7683
      7681      7679      7682      7684      7681      7679      7682      7685
      7683      7682      7685      7686      7683      7682      7685      7687
      7683      7682      7685      7688      7684      7682      7685      7686
      7684      7682      7685      7687      7684      7682      7685      7688
      7689      7690      7705      7706      7689      7690      7705      7707
      7689      7690      7705      7711      7690      7689      7693      7694
      7690      7689      7693      7695      7690      7689      7693      7696
      7690      7689      7697      7698      7690      7689      7697      7699
      7690      7689      7697      7700      7690      7689      7701      7702
      7690      7689      7701      7703      7690      7689      7701      7704
      7690      7705      7711      7708      7691      7690      7689      7693
      7691      7690      7689      7697      7691      7690      7689      7701
      7691      7690      7705      7706      7691      7690      7705      7707
      7691      7690      7705      7711      7692      7690      7689      7693
      7692      7690      7689      7697      7692      7690      7689      7701
      7692      7690      7705      7706      7692      7690      7705      7707
      7692      7690      7705      7711      7693      7689      7690      7705
      7693      7689      7697      7698      7693      7689      7697      7699
      7693      7689      7697      7700      7693      7689      7701      7702
      7693      7689      7701      7703      7693      7689      7701      7704
      7694      7693      7689      7697      7694      7693      7689      7701
      7695      7693      7689      7697      7695      7693      7689      7701
      7696      7693      7689      7697      7696      7693      7689      7701
      7697      7689      7690      7705      7697      7689      7701      7702
      7697      7689      7701      7703      7697      7689      7701      7704
      7698      7697      7689      7701      7699      7697      7689      7701
      7700      7697      7689      7701      7701      7689      7690      7705
      7705      7711      7708      7709      7705      7711      7708      7710
      7705      7711      7708      7712      7706      7705      7711      7708
      7707      7705      7711      7708      7708      7712      7713      7714
      7708      7712      7713      7715      7708      7712      7713      7716
      7709      7708      7712      7713      7710      7708      7712      7713
      7711      7708      7712      7713      7712      7713      7716      7717
      7712      7713      7716      7718      7712      7713      7716      7724
      7713      7716      7718      7719      7713      7716      7724      7725
      7713      7716      7724      7726      7713      7716      7724      7727
      7714      7713      7716      7717      7714      7713      7716      7718
      7714      7713      7716      7724      7715      7713      7716      7717
      7715      7713      7716      7718      7715      7713      7716      7724
      7716      7718      7719      7720      7716      7718      7719      7721
      7716      7724      7727      7728      7717      7716      7718      7719
      7717      7716      7724      7725      7717      7716      7724      7726
      7717      7716      7724      7727      7718      7716      7724      7725
      7718      7716      7724      7726      7718      7716      7724      7727
      7718      7719      7721      7722      7718      7719      7721      7723
      7718      7719      7721      7733      7719      7718      7716      7724
      7719      7721      7733      7734      7719      7721      7733      7735
      7719      7721      7733      7736      7720      7719      7721      7722
      7720      7719      7721      7723      7720      7719      7721      7733
      7721      7733      7736      7737      7721      7733      7736      7738
      7721      7733      7736      7739      7722      7721      7733      7734
      7722      7721      7733      7735      7722      7721      7733      7736
      7723      7721      7733      7734      7723      7721      7733      7735
      7723      7721      7733      7736      7724      7727      7728      7729
      7724      7727      7728      7730      7725      7724      7727      7728
      7726      7724      7727      7728      7727      7728      7730      7731
      7727      7728      7730      7732      7727      7728      7730      7780
      7728      7730      7780      7781      7728      7730      7780      7782
      7728      7730      7780      7783      7729      7728      7730      7731
      7729      7728      7730      7732      7729      7728      7730      7780
      7730      7780      7783      7784      7730      7780      7783      7785
      7730      7780      7783      7786      7731      7730      7780      7781
      7731      7730      7780      7782      7731      7730      7780      7783
      7732      7730      7780      7781      7732      7730      7780      7782
      7732      7730      7780      7783      7733      7736      7739      7740
      7733      7736      7739      7741      7733      7736      7739      7742
      7734      7733      7736      7737      7734      7733      7736      7738
      7734      7733      7736      7739      7735      7733      7736      7737
      7735      7733      7736      7738      7735      7733      7736      7739
      7736      7739      7742      7743      7736      7739      7742      7744
      7736      7739      7742      7745      7737      7736      7739      7740
      7737      7736      7739      7741      7737      7736      7739      7742
      7738      7736      7739      7740      7738      7736      7739      7741
      7738      7736      7739      7742      7739      7742      7745      7746
      7739      7742      7745      7747      7739      7742      7745      7748
      7740      7739      7742      7743      7740      7739      7742      7744
      7740      7739      7742      7745      7741      7739      7742      7743
      7741      7739      7742      7744      7741      7739      7742      7745
      7742      7745      7748      7749      7742      7745      7748      7750
      7742      7745      7748      7751      7743      7742      7745      7746
      7743      7742      7745      7747      7743      7742      7745      7748
      7744      7742      7745      7746      7744      7742      7745      7747
      7744      7742      7745      7748      7745      7748      7751      7752
      7745      7748      7751      7753      7746      7745      7748      7749
      7746      7745      7748      7750      7746      7745      7748      7751
      7747      7745      7748      7749      7747      7745      7748      7750
      7747      7745      7748      7751      7748      7751      7753      7754
      7748      7751      7753      7755      7749      7748      7751      7752
      7749      7748      7751      7753      7750      7748      7751      7752
      7750      7748      7751      7753      7751      7753      7755      7756
      7751      7753      7755      7757      7751      7753      7755      7758
      7752      7751      7753      7754      7752      7751      7753      7755
      7753      7755      7758      7759      7753      7755      7758      7760
      7753      7755      7758      7761      7754      7753      7755      7756
      7754      7753      7755      7757      7754      7753      7755      7758
      7755      7758      7761      7762      7755      7758      7761      7763
      7755      7758      7761      7764      7756      7755      7758      7759
      7756      7755      7758      7760      7756      7755      7758      7761
      7757      7755      7758      7759      7757      7755      7758      7760
      7757      7755      7758      7761      7758      7761      7764      7765
      7758      7761      7764      7766      7758      7761      7764      7767
      7759      7758      7761      7762      7759      7758      7761      7763
      7759      7758      7761      7764      7760      7758      7761      7762
      7760      7758      7761      7763      7760      7758      7761      7764
      7761      7764      7767      7768      7761      7764      7767      7769
      7761      7764      7767      7770      7762      7761      7764      7765
      7762      7761      7764      7766      7762      7761      7764      7767
      7763      7761      7764      7765      7763      7761      7764      7766
      7763      7761      7764      7767      7764      7767      7770      7771
      7764      7767      7770      7772      7764      7767      7770      7773
      7765      7764      7767      7768      7765      7764      7767      7769
      7765      7764      7767      7770      7766      7764      7767      7768
      7766      7764      7767      7769      7766      7764      7767      7770
      7767      7770      7773      7774      7767      7770      7773      7775
      7767      7770      7773      7776      7768      7767      7770      7771
      7768      7767      7770      7772      7768      7767      7770      7773
      7769      7767      7770      7771      7769      7767      7770      7772
      7769      7767      7770      7773      7770      7773      7776      7777
      7770      7773      7776      7778      7770      7773      7776      7779
      7771      7770      7773      7774      7771      7770      7773      7775
      7771      7770      7773      7776      7772      7770      7773      7774
      7772      7770      7773      7775      7772      7770      7773      7776
      7774      7773      7776      7777      7774      7773      7776      7778
      7774      7773      7776      7779      7775      7773      7776      7777
      7775      7773      7776      7778      7775      7773      7776      7779
      7780      7783      7786      7787      7780      7783      7786      7788
      7780      7783      7786      7789      7781      7780      7783      7784
      7781      7780      7783      7785      7781      7780      7783      7786
      7782      7780      7783      7784      7782      7780      7783      7785
      7782      7780      7783      7786      7783      7786      7789      7790
      7783      7786      7789      7791      7783      7786      7789      7792
      7784      7783      7786      7787      7784      7783      7786      7788
      7784      7783      7786      7789      7785      7783      7786      7787
      7785      7783      7786      7788      7785      7783      7786      7789
      7786      7789      7792      7793      7786      7789      7792      7794
      7786      7789      7792      7795      7787      7786      7789      7790
      7787      7786      7789      7791      7787      7786      7789      7792
      7788      7786      7789      7790      7788      7786      7789      7791
      7788      7786      7789      7792      7789      7792      7795      7796
      7789      7792      7795      7797      7789      7792      7795      7798
      7790      7789      7792      7793      7790      7789      7792      7794
      7790      7789      7792      7795      7791      7789      7792      7793
      7791      7789      7792      7794      7791      7789      7792      7795
      7792      7795      7798      7799      7792      7795      7798      7800
      7792      7795      7798      7801      7793      7792      7795      7796
      7793      7792      7795      7797      7793      7792      7795      7798
      7794      7792      7795      7796      7794      7792      7795      7797
      7794      7792      7795      7798      7795      7798      7801      7802
      7795      7798      7801      7803      7795      7798      7801      7804
      7796      7795      7798      7799      7796      7795      7798      7800
      7796      7795      7798      7801      7797      7795      7798      7799
      7797      7795      7798      7800      7797      7795      7798      7801
      7798      7801      7804      7805      7798      7801      7804      7806
      7798      7801      7804      7807      7799      7798      7801      7802
      7799      7798      7801      7803      7799      7798      7801      7804
      7800      7798      7801      7802      7800      7798      7801      7803
      7800      7798      7801      7804      7801      7804      7807      7808
      7801      7804      7807      7809      7801      7804      7807      7810
      7802      7801      7804      7805      7802      7801      7804      7806
      7802      7801      7804      7807      7803      7801      7804      7805
      7803      7801      7804      7806      7803      7801      7804      7807
      7804      7807      7810      7811      7804      7807      7810      7812
      7804      7807      7810      7813      7805      7804      7807      7808
      7805      7804      7807      7809      7805      7804      7807      7810
      7806      7804      7807      7808      7806      7804      7807      7809
      7806      7804      7807      7810      7807      7810      7813      7814
      7807      7810      7813      7815      7807      7810      7813      7816
      7808      7807      7810      7811      7808      7807      7810      7812
      7808      7807      7810      7813      7809      7807      7810      7811
      7809      7807      7810      7812      7809      7807      7810      7813
      7810      7813      7816      7817      7810      7813      7816      7818
      7810      7813      7816      7819      7811      7810      7813      7814
      7811      7810      7813      7815      7811      7810      7813      7816
      7812      7810      7813      7814      7812      7810      7813      7815
      7812      7810      7813      7816      7813      7816      7819      7820
      7813      7816      7819      7821      7813      7816      7819      7822
      7814      7813      7816      7817      7814      7813      7816      7818
      7814      7813      7816      7819      7815      7813      7816      7817
      7815      7813      7816      7818      7815      7813      7816      7819
      7817      7816      7819      7820      7817      7816      7819      7821
      7817      7816      7819      7822      7818      7816      7819      7820
      7818      7816      7819      7821      7818      7816      7819      7822
      7823      7824      7839      7840      7823      7824      7839      7841
      7823      7824      7839      7845      7824      7823      7827      7828
      7824      7823      7827      7829      7824      7823      7827      7830
      7824      7823      7831      7832      7824      7823      7831      7833
      7824      7823      7831      7834      7824      7823      7835      7836
      7824      7823      7835      7837      7824      7823      7835      7838
      7824      7839      7845      7842      7825      7824      7823      7827
      7825      7824      7823      7831      7825      7824      7823      7835
      7825      7824      7839      7840      7825      7824      7839      7841
      7825      7824      7839      7845      7826      7824      7823      7827
      7826      7824      7823      7831      7826      7824      7823      7835
      7826      7824      7839      7840      7826      7824      7839      7841
      7826      7824      7839      7845      7827      7823      7824      7839
      7827      7823      7831      7832      7827      7823      7831      7833
      7827      7823      7831      7834      7827      7823      7835      7836
      7827      7823      7835      7837      7827      7823      7835      7838
      7828      7827      7823      7831      7828      7827      7823      7835
      7829      7827      7823      7831      7829      7827      7823      7835
      7830      7827      7823      7831      7830      7827      7823      7835
      7831      7823      7824      7839      7831      7823      7835      7836
      7831      7823      7835      7837      7831      7823      7835      7838
      7832      7831      7823      7835      7833      7831      7823      7835
      7834      7831      7823      7835      7835      7823      7824      7839
      7839      7845      7842      7843      7839      7845      7842      7844
      7839      7845      7842      7846      7840      7839      7845      7842
      7841      7839      7845      7842      7842      7846      7847      7848
      7842      7846      7847      7849      7842      7846      7847      7850
      7843      7842      7846      7847      7844      7842      7846      7847
      7845      7842      7846      7847      7846      7847      7850      7851
      7846      7847      7850      7852      7846      7847      7850      7858
      7847      7850      7852      7853      7847      7850      7858      7859
      7847      7850      7858      7860      7847      7850      7858      7861
      7848      7847      7850      7851      7848      7847      7850      7852
      7848      7847      7850      7858      7849      7847      7850      7851
      7849      7847      7850      7852      7849      7847      7850      7858
      7850      7852      7853      7854      7850      7852      7853      7855
      7850      7858      7861      7862      7851      7850      7852      7853
      7851      7850      7858      7859      7851      7850      7858      7860
      7851      7850      7858      7861      7852      7850      7858      7859
      7852      7850      7858      7860      7852      7850      7858      7861
      7852      7853      7855      7856      7852      7853      7855      7857
      7852      7853      7855      7867      7853      7852      7850      7858
      7853      7855      7867      7868      7853      7855      7867      7869
      7853      7855      7867      7870      7854      7853      7855      7856
      7854      7853      7855      7857      7854      7853      7855      7867
      7855      7867      7870      7871      7855      7867      7870      7872
      7855      7867      7870      7873      7856      7855      7867      7868
      7856      7855      7867      7869      7856      7855      7867      7870
      7857      7855      7867      7868      7857      7855      7867      7869
      7857      7855      7867      7870      7858      7861      7862      7863
      7858      7861      7862      7864      7859      7858      7861      7862
      7860      7858      7861      7862      7861      7862      7864      7865
      7861      7862      7864      7866      7861      7862      7864      7914
      7862      7864      7914      7915      7862      7864      7914      7916
      7862      7864      7914      7917      7863      7862      7864      7865
      7863      7862      7864      7866      7863      7862      7864      7914
      7864      7914      7917      7918      7864      7914      7917      7919
      7864      7914      7917      7920      7865      7864      7914      7915
      7865      7864      7914      7916      7865      7864      7914      7917
      7866      7864      7914      7915      7866      7864      7914      7916
      7866      7864      7914      7917      7867      7870      7873      7874
      7867      7870      7873      7875      7867      7870      7873      7876
      7868      7867      7870      7871      7868      7867      7870      7872
      7868      7867      7870      7873      7869      7867      7870      7871
      7869      7867      7870      7872      7869      7867      7870      7873
      7870      7873      7876      7877      7870      7873      7876      7878
      7870      7873      7876      7879      7871      7870      7873      7874
      7871      7870      7873      7875      7871      7870      7873      7876
      7872      7870      7873      7874      7872      7870      7873      7875
      7872      7870      7873      7876      7873      7876      7879      7880
      7873      7876      7879      7881      7873      7876      7879      7882
      7874      7873      7876      7877      7874      7873      7876      7878
      7874      7873      7876      7879      7875      7873      7876      7877
      7875      7873      7876      7878      7875      7873      7876      7879
      7876      7879      7882      7883      7876      7879      7882      7884
      7876      7879      7882      7885      7877      7876      7879      7880
      7877      7876      7879      7881      7877      7876      7879      7882
      7878      7876      7879      7880      7878      7876      7879      7881
      7878      7876      7879      7882      7879      7882      7885      7886
      7879      7882      7885      7887      7880      7879      7882      7883
      7880      7879      7882      7884      7880      7879      7882      7885
      7881      7879      7882      7883      7881      7879      7882      7884
      7881      7879      7882      7885      7882      7885      7887      7888
      7882      7885      7887      7889      7883      7882      7885      7886
      7883      7882      7885      7887      7884      7882      7885      7886
      7884      7882      7885      7887      7885      7887      7889      7890
      7885      7887      7889      7891      7885      7887      7889      7892
      7886      7885      7887      7888      7886      7885      7887      7889
      7887      7889      7892      7893      7887      7889      7892      7894
      7887      7889      7892      7895      7888      7887      7889      7890
      7888      7887      7889      7891      7888      7887      7889      7892
      7889      7892      7895      7896      7889      7892      7895      7897
      7889      7892      7895      7898      7890      7889      7892      7893
      7890      7889      7892      7894      7890      7889      7892      7895
      7891      7889      7892      7893      7891      7889      7892      7894
      7891      7889      7892      7895      7892      7895      7898      7899
      7892      7895      7898      7900      7892      7895      7898      7901
      7893      7892      7895      7896      7893      7892      7895      7897
      7893      7892      7895      7898      7894      7892      7895      7896
      7894      7892      7895      7897      7894      7892      7895      7898
      7895      7898      7901      7902      7895      7898      7901      7903
      7895      7898      7901      7904      7896      7895      7898      7899
      7896      7895      7898      7900      7896      7895      7898      7901
      7897      7895      7898      7899      7897      7895      7898      7900
      7897      7895      7898      7901      7898      7901      7904      7905
      7898      7901      7904      7906      7898      7901      7904      7907
      7899      7898      7901      7902      7899      7898      7901      7903
      7899      7898      7901      7904      7900      7898      7901      7902
      7900      7898      7901      7903      7900      7898      7901      7904
      7901      7904      7907      7908      7901      7904      7907      7909
      7901      7904      7907      7910      7902      7901      7904      7905
      7902      7901      7904      7906      7902      7901      7904      7907
      7903      7901      7904      7905      7903      7901      7904      7906
      7903      7901      7904      7907      7904      7907      7910      7911
      7904      7907      7910      7912      7904      7907      7910      7913
      7905      7904      7907      7908      7905      7904      7907      7909
      7905      7904      7907      7910      7906      7904      7907      7908
      7906      7904      7907      7909      7906      7904      7907      7910
      7908      7907      7910      7911      7908      7907      7910      7912
      7908      7907      7910      7913      7909      7907      7910      7911
      7909      7907      7910      7912      7909      7907      7910      7913
      7914      7917      7920      7921      7914      7917      7920      7922
      7914      7917      7920      7923      7915      7914      7917      7918
      7915      7914      7917      7919      7915      7914      7917      7920
      7916      7914      7917      7918      7916      7914      7917      7919
      7916      7914      7917      7920      7917      7920      7923      7924
      7917      7920      7923      7925      7917      7920      7923      7926
      7918      7917      7920      7921      7918      7917      7920      7922
      7918      7917      7920      7923      7919      7917      7920      7921
      7919      7917      7920      7922      7919      7917      7920      7923
      7920      7923      7926      7927      7920      7923      7926      7928
      7920      7923      7926      7929      7921      7920      7923      7924
      7921      7920      7923      7925      7921      7920      7923      7926
      7922      7920      7923      7924      7922      7920      7923      7925
      7922      7920      7923      7926      7923      7926      7929      7930
      7923      7926      7929      7931      7923      7926      7929      7932
      7924      7923      7926      7927      7924      7923      7926      7928
      7924      7923      7926      7929      7925      7923      7926      7927
      7925      7923      7926      7928      7925      7923      7926      7929
      7926      7929      7932      7933      7926      7929      7932      7934
      7926      7929      7932      7935      7927      7926      7929      7930
      7927      7926      7929      7931      7927      7926      7929      7932
      7928      7926      7929      7930      7928      7926      7929      7931
      7928      7926      7929      7932      7929      7932      7935      7936
      7929      7932      7935      7937      7929      7932      7935      7938
      7930      7929      7932      7933      7930      7929      7932      7934
      7930      7929      7932      7935      7931      7929      7932      7933
      7931      7929      7932      7934      7931      7929      7932      7935
      7932      7935      7938      7939      7932      7935      7938      7940
      7932      7935      7938      7941      7933      7932      7935      7936
      7933      7932      7935      7937      7933      7932      7935      7938
      7934      7932      7935      7936      7934      7932      7935      7937
      7934      7932      7935      7938      7935      7938      7941      7942
      7935      7938      7941      7943      7935      7938      7941      7944
      7936      7935      7938      7939      7936      7935      7938      7940
      7936      7935      7938      7941      7937      7935      7938      7939
      7937      7935      7938      7940      7937      7935      7938      7941
      7938      7941      7944      7945      7938      7941      7944      7946
      7938      7941      7944      7947      7939      7938      7941      7942
      7939      7938      7941      7943      7939      7938      7941      7944
      7940      7938      7941      7942      7940      7938      7941      7943
      7940      7938      7941      7944      7941      7944      7947      7948
      7941      7944      7947      7949      7941      7944      7947      7950
      7942      7941      7944      7945      7942      7941      7944      7946
      7942      7941      7944      7947      7943      7941      7944      7945
      7943      7941      7944      7946      7943      7941      7944      7947
      7944      7947      7950      7951      7944      7947      7950      7952
      7944      7947      7950      7953      7945      7944      7947      7948
      7945      7944      7947      7949      7945      7944      7947      7950
      7946      7944      7947      7948      7946      7944      7947      7949
      7946      7944      7947      7950      7947      7950      7953      7954
      7947      7950      7953      7955      7947      7950      7953      7956
      7948      7947      7950      7951      7948      7947      7950      7952
      7948      7947      7950      7953      7949      7947      7950      7951
      7949      7947      7950      7952      7949      7947      7950      7953
      7951      7950      7953      7954      7951      7950      7953      7955
      7951      7950      7953      7956      7952      7950      7953      7954
      7952      7950      7953      7955      7952      7950      7953      7956
      7957      7958      7973      7974      7957      7958      7973      7975
      7957      7958      7973      7979      7958      7957      7961      7962
      7958      7957      7961      7963      7958      7957      7961      7964
      7958      7957      7965      7966      7958      7957      7965      7967
      7958      7957      7965      7968      7958      7957      7969      7970
      7958      7957      7969      7971      7958      7957      7969      7972
      7958      7973      7979      7976      7959      7958      7957      7961
      7959      7958      7957      7965      7959      7958      7957      7969
      7959      7958      7973      7974      7959      7958      7973      7975
      7959      7958      7973      7979      7960      7958      7957      7961
      7960      7958      7957      7965      7960      7958      7957      7969
      7960      7958      7973      7974      7960      7958      7973      7975
      7960      7958      7973      7979      7961      7957      7958      7973
      7961      7957      7965      7966      7961      7957      7965      7967
      7961      7957      7965      7968      7961      7957      7969      7970
      7961      7957      7969      7971      7961      7957      7969      7972
      7962      7961      7957      7965      7962      7961      7957      7969
      7963      7961      7957      7965      7963      7961      7957      7969
      7964      7961      7957      7965      7964      7961      7957      7969
      7965      7957      7958      7973      7965      7957      7969      7970
      7965      7957      7969      7971      7965      7957      7969      7972
      7966      7965      7957      7969      7967      7965      7957      7969
      7968      7965      7957      7969      7969      7957      7958      7973
      7973      7979      7976      7977      7973      7979      7976      7978
      7973      7979      7976      7980      7974      7973      7979      7976
      7975      7973      7979      7976      7976      7980      7981      7982
      7976      7980      7981      7983      7976      7980      7981      7984
      7977      7976      7980      7981      7978      7976      7980      7981
      7979      7976      7980      7981      7980      7981      7984      7985
      7980      7981      7984      7986      7980      7981      7984      7992
      7981      7984      7986      7987      7981      7984      7992      7993
      7981      7984      7992      7994      7981      7984      7992      7995
      7982      7981      7984      7985      7982      7981      7984      7986
      7982      7981      7984      7992      7983      7981      7984      7985
      7983      7981      7984      7986      7983      7981      7984      7992
      7984      7986      7987      7988      7984      7986      7987      7989
      7984      7992      7995      7996      7985      7984      7986      7987
      7985      7984      7992      7993      7985      7984      7992      7994
      7985      7984      7992      7995      7986      7984      7992      7993
      7986      7984      7992      7994      7986      7984      7992      7995
      7986      7987      7989      7990      7986      7987      7989      7991
      7986      7987      7989      8001      7987      7986      7984      7992
      7987      7989      8001      8002      7987      7989      8001      8003
      7987      7989      8001      8004      7988      7987      7989      7990
      7988      7987      7989      7991      7988      7987      7989      8001
      7989      8001      8004      8005      7989      8001      8004      8006
      7989      8001      8004      8007      7990      7989      8001      8002
      7990      7989      8001      8003      7990      7989      8001      8004
      7991      7989      8001      8002      7991      7989      8001      8003
      7991      7989      8001      8004      7992      7995      7996      7997
      7992      7995      7996      7998      7993      7992      7995      7996
      7994      7992      7995      7996      7995      7996      7998      7999
      7995      7996      7998      8000      7995      7996      7998      8048
      7996      7998      8048      8049      7996      7998      8048      8050
      7996      7998      8048      8051      7997      7996      7998      7999
      7997      7996      7998      8000      7997      7996      7998      8048
      7998      8048      8051      8052      7998      8048      8051      8053
      7998      8048      8051      8054      7999      7998      8048      8049
      7999      7998      8048      8050      7999      7998      8048      8051
      8000      7998      8048      8049      8000      7998      8048      8050
      8000      7998      8048      8051      8001      8004      8007      8008
      8001      8004      8007      8009      8001      8004      8007      8010
      8002      8001      8004      8005      8002      8001      8004      8006
      8002      8001      8004      8007      8003      8001      8004      8005
      8003      8001      8004      8006      8003      8001      8004      8007
      8004      8007      8010      8011      8004      8007      8010      8012
      8004      8007      8010      8013      8005      8004      8007      8008
      8005      8004      8007      8009      8005      8004      8007      8010
      8006      8004      8007      8008      8006      8004      8007      8009
      8006      8004      8007      8010      8007      8010      8013      8014
      8007      8010      8013      8015      8007      8010      8013      8016
      8008      8007      8010      8011      8008      8007      8010      8012
      8008      8007      8010      8013      8009      8007      8010      8011
      8009      8007      8010      8012      8009      8007      8010      8013
      8010      8013      8016      8017      8010      8013      8016      8018
      8010      8013      8016      8019      8011      8010      8013      8014
      8011      8010      8013      8015      8011      8010      8013      8016
      8012      8010      8013      8014      8012      8010      8013      8015
      8012      8010      8013      8016      8013      8016      8019      8020
      8013      8016      8019      8021      8014      8013      8016      8017
      8014      8013      8016      8018      8014      8013      8016      8019
      8015      8013      8016      8017      8015      8013      8016      8018
      8015      8013      8016      8019      8016      8019      8021      8022
      8016      8019      8021      8023      8017      8016      8019      8020
      8017      8016      8019      8021      8018      8016      8019      8020
      8018      8016      8019      8021      8019      8021      8023      8024
      8019      8021      8023      8025      8019      8021      8023      8026
      8020      8019      8021      8022      8020      8019      8021      8023
      8021      8023      8026      8027      8021      8023      8026      8028
      8021      8023      8026      8029      8022      8021      8023      8024
      8022      8021      8023      8025      8022      8021      8023      8026
      8023      8026      8029      8030      8023      8026      8029      8031
      8023      8026      8029      8032      8024      8023      8026      8027
      8024      8023      8026      8028      8024      8023      8026      8029
      8025      8023      8026      8027      8025      8023      8026      8028
      8025      8023      8026      8029      8026      8029      8032      8033
      8026      8029      8032      8034      8026      8029      8032      8035
      8027      8026      8029      8030      8027      8026      8029      8031
      8027      8026      8029      8032      8028      8026      8029      8030
      8028      8026      8029      8031      8028      8026      8029      8032
      8029      8032      8035      8036      8029      8032      8035      8037
      8029      8032      8035      8038      8030      8029      8032      8033
      8030      8029      8032      8034      8030      8029      8032      8035
      8031      8029      8032      8033      8031      8029      8032      8034
      8031      8029      8032      8035      8032      8035      8038      8039
      8032      8035      8038      8040      8032      8035      8038      8041
      8033      8032      8035      8036      8033      8032      8035      8037
      8033      8032      8035      8038      8034      8032      8035      8036
      8034      8032      8035      8037      8034      8032      8035      8038
      8035      8038      8041      8042      8035      8038      8041      8043
      8035      8038      8041      8044      8036      8035      8038      8039
      8036      8035      8038      8040      8036      8035      8038      8041
      8037      8035      8038      8039      8037      8035      8038      8040
      8037      8035      8038      8041      8038      8041      8044      8045
      8038      8041      8044      8046      8038      8041      8044      8047
      8039      8038      8041      8042      8039      8038      8041      8043
      8039      8038      8041      8044      8040      8038      8041      8042
      8040      8038      8041      8043      8040      8038      8041      8044
      8042      8041      8044      8045      8042      8041      8044      8046
      8042      8041      8044      8047      8043      8041      8044      8045
      8043      8041      8044      8046      8043      8041      8044      8047
      8048      8051      8054      8055      8048      8051      8054      8056
      8048      8051      8054      8057      8049      8048      8051      8052
      8049      8048      8051      8053      8049      8048      8051      8054
      8050      8048      8051      8052      8050      8048      8051      8053
      8050      8048      8051      8054      8051      8054      8057      8058
      8051      8054      8057      8059      8051      8054      8057      8060
      8052      8051      8054      8055      8052      8051      8054      8056
      8052      8051      8054      8057      8053      8051      8054      8055
      8053      8051      8054      8056      8053      8051      8054      8057
      8054      8057      8060      8061      8054      8057      8060      8062
      8054      8057      8060      8063      8055      8054      8057      8058
      8055      8054      8057      8059      8055      8054      8057      8060
      8056      8054      8057      8058      8056      8054      8057      8059
      8056      8054      8057      8060      8057      8060      8063      8064
      8057      8060      8063      8065      8057      8060      8063      8066
      8058      8057      8060      8061      8058      8057      8060      8062
      8058      8057      8060      8063      8059      8057      8060      8061
      8059      8057      8060      8062      8059      8057      8060      8063
      8060      8063      8066      8067      8060      8063      8066      8068
      8060      8063      8066      8069      8061      8060      8063      8064
      8061      8060      8063      8065      8061      8060      8063      8066
      8062      8060      8063      8064      8062      8060      8063      8065
      8062      8060      8063      8066      8063      8066      8069      8070
      8063      8066      8069      8071      8063      8066      8069      8072
      8064      8063      8066      8067      8064      8063      8066      8068
      8064      8063      8066      8069      8065      8063      8066      8067
      8065      8063      8066      8068      8065      8063      8066      8069
      8066      8069      8072      8073      8066      8069      8072      8074
      8066      8069      8072      8075      8067      8066      8069      8070
      8067      8066      8069      8071      8067      8066      8069      8072
      8068      8066      8069      8070      8068      8066      8069      8071
      8068      8066      8069      8072      8069      8072      8075      8076
      8069      8072      8075      8077      8069      8072      8075      8078
      8070      8069      8072      8073      8070      8069      8072      8074
      8070      8069      8072      8075      8071      8069      8072      8073
      8071      8069      8072      8074      8071      8069      8072      8075
      8072      8075      8078      8079      8072      8075      8078      8080
      8072      8075      8078      8081      8073      8072      8075      8076
      8073      8072      8075      8077      8073      8072      8075      8078
      8074      8072      8075      8076      8074      8072      8075      8077
      8074      8072      8075      8078      8075      8078      8081      8082
      8075      8078      8081      8083      8075      8078      8081      8084
      8076      8075      8078      8079      8076      8075      8078      8080
      8076      8075      8078      8081      8077      8075      8078      8079
      8077      8075      8078      8080      8077      8075      8078      8081
      8078      8081      8084      8085      8078      8081      8084      8086
      8078      8081      8084      8087      8079      8078      8081      8082
      8079      8078      8081      8083      8079      8078      8081      8084
      8080      8078      8081      8082      8080      8078      8081      8083
      8080      8078      8081      8084      8081      8084      8087      8088
      8081      8084      8087      8089      8081      8084      8087      8090
      8082      8081      8084      8085      8082      8081      8084      8086
      8082      8081      8084      8087      8083      8081      8084      8085
      8083      8081      8084      8086      8083      8081      8084      8087
      8085      8084      8087      8088      8085      8084      8087      8089
      8085      8084      8087      8090      8086      8084      8087      8088
      8086      8084      8087      8089      8086      8084      8087      8090
      8091      8092      8107      8108      8091      8092      8107      8109
      8091      8092      8107      8113      8092      8091      8095      8096
      8092      8091      8095      8097      8092      8091      8095      8098
      8092      8091      8099      8100      8092      8091      8099      8101
      8092      8091      8099      8102      8092      8091      8103      8104
      8092      8091      8103      8105      8092      8091      8103      8106
      8092      8107      8113      8110      8093      8092      8091      8095
      8093      8092      8091      8099      8093      8092      8091      8103
      8093      8092      8107      8108      8093      8092      8107      8109
      8093      8092      8107      8113      8094      8092      8091      8095
      8094      8092      8091      8099      8094      8092      8091      8103
      8094      8092      8107      8108      8094      8092      8107      8109
      8094      8092      8107      8113      8095      8091      8092      8107
      8095      8091      8099      8100      8095      8091      8099      8101
      8095      8091      8099      8102      8095      8091      8103      8104
      8095      8091      8103      8105      8095      8091      8103      8106
      8096      8095      8091      8099      8096      8095      8091      8103
      8097      8095      8091      8099      8097      8095      8091      8103
      8098      8095      8091      8099      8098      8095      8091      8103
      8099      8091      8092      8107      8099      8091      8103      8104
      8099      8091      8103      8105      8099      8091      8103      8106
      8100      8099      8091      8103      8101      8099      8091      8103
      8102      8099      8091      8103      8103      8091      8092      8107
      8107      8113      8110      8111      8107      8113      8110      8112
      8107      8113      8110      8114      8108      8107      8113      8110
      8109      8107      8113      8110      8110      8114      8115      8116
      8110      8114      8115      8117      8110      8114      8115      8118
      8111      8110      8114      8115      8112      8110      8114      8115
      8113      8110      8114      8115      8114      8115      8118      8119
      8114      8115      8118      8120      8114      8115      8118      8126
      8115      8118      8120      8121      8115      8118      8126      8127
      8115      8118      8126      8128      8115      8118      8126      8129
      8116      8115      8118      8119      8116      8115      8118      8120
      8116      8115      8118      8126      8117      8115      8118      8119
      8117      8115      8118      8120      8117      8115      8118      8126
      8118      8120      8121      8122      8118      8120      8121      8123
      8118      8126      8129      8130      8119      8118      8120      8121
      8119      8118      8126      8127      8119      8118      8126      8128
      8119      8118      8126      8129      8120      8118      8126      8127
      8120      8118      8126      8128      8120      8118      8126      8129
      8120      8121      8123      8124      8120      8121      8123      8125
      8120      8121      8123      8135      8121      8120      8118      8126
      8121      8123      8135      8136      8121      8123      8135      8137
      8121      8123      8135      8138      8122      8121      8123      8124
      8122      8121      8123      8125      8122      8121      8123      8135
      8123      8135      8138      8139      8123      8135      8138      8140
      8123      8135      8138      8141      8124      8123      8135      8136
      8124      8123      8135      8137      8124      8123      8135      8138
      8125      8123      8135      8136      8125      8123      8135      8137
      8125      8123      8135      8138      8126      8129      8130      8131
      8126      8129      8130      8132      8127      8126      8129      8130
      8128      8126      8129      8130      8129      8130      8132      8133
      8129      8130      8132      8134      8129      8130      8132      8182
      8130      8132      8182      8183      8130      8132      8182      8184
      8130      8132      8182      8185      8131      8130      8132      8133
      8131      8130      8132      8134      8131      8130      8132      8182
      8132      8182      8185      8186      8132      8182      8185      8187
      8132      8182      8185      8188      8133      8132      8182      8183
      8133      8132      8182      8184      8133      8132      8182      8185
      8134      8132      8182      8183      8134      8132      8182      8184
      8134      8132      8182      8185      8135      8138      8141      8142
      8135      8138      8141      8143      8135      8138      8141      8144
      8136      8135      8138      8139      8136      8135      8138      8140
      8136      8135      8138      8141      8137      8135      8138      8139
      8137      8135      8138      8140      8137      8135      8138      8141
      8138      8141      8144      8145      8138      8141      8144      8146
      8138      8141      8144      8147      8139      8138      8141      8142
      8139      8138      8141      8143      8139      8138      8141      8144
      8140      8138      8141      8142      8140      8138      8141      8143
      8140      8138      8141      8144      8141      8144      8147      8148
      8141      8144      8147      8149      8141      8144      8147      8150
      8142      8141      8144      8145      8142      8141      8144      8146
      8142      8141      8144      8147      8143      8141      8144      8145
      8143      8141      8144      8146      8143      8141      8144      8147
      8144      8147      8150      8151      8144      8147      8150      8152
      8144      8147      8150      8153      8145      8144      8147      8148
      8145      8144      8147      8149      8145      8144      8147      8150
      8146      8144      8147      8148      8146      8144      8147      8149
      8146      8144      8147      8150      8147      8150      8153      8154
      8147      8150      8153      8155      8148      8147      8150      8151
      8148      8147      8150      8152      8148      8147      8150      8153
      8149      8147      8150      8151      8149      8147      8150      8152
      8149      8147      8150      8153      8150      8153      8155      8156
      8150      8153      8155      8157      8151      8150      8153      8154
      8151      8150      8153      8155      8152      8150      8153      8154
      8152      8150      8153      8155      8153      8155      8157      8158
      8153      8155      8157      8159      8153      8155      8157      8160
      8154      8153      8155      8156      8154      8153      8155      8157
      8155      8157      8160      8161      8155      8157      8160      8162
      8155      8157      8160      8163      8156      8155      8157      8158
      8156      8155      8157      8159      8156      8155      8157      8160
      8157      8160      8163      8164      8157      8160      8163      8165
      8157      8160      8163      8166      8158      8157      8160      8161
      8158      8157      8160      8162      8158      8157      8160      8163
      8159      8157      8160      8161      8159      8157      8160      8162
      8159      8157      8160      8163      8160      8163      8166      8167
      8160      8163      8166      8168      8160      8163      8166      8169
      8161      8160      8163      8164      8161      8160      8163      8165
      8161      8160      8163      8166      8162      8160      8163      8164
      8162      8160      8163      8165      8162      8160      8163      8166
      8163      8166      8169      8170      8163      8166      8169      8171
      8163      8166      8169      8172      8164      8163      8166      8167
      8164      8163      8166      8168      8164      8163      8166      8169
      8165      8163      8166      8167      8165      8163      8166      8168
      8165      8163      8166      8169      8166      8169      8172      8173
      8166      8169      8172      8174      8166      8169      8172      8175
      8167      8166      8169      8170      8167      8166      8169      8171
      8167      8166      8169      8172      8168      8166      8169      8170
      8168      8166      8169      8171      8168      8166      8169      8172
      8169      8172      8175      8176      8169      8172      8175      8177
      8169      8172      8175      8178      8170      8169      8172      8173
      8170      8169      8172      8174      8170      8169      8172      8175
      8171      8169      8172      8173      8171      8169      8172      8174
      8171      8169      8172      8175      8172      8175      8178      8179
      8172      8175      8178      8180      8172      8175      8178      8181
      8173      8172      8175      8176      8173      8172      8175      8177
      8173      8172      8175      8178      8174      8172      8175      8176
      8174      8172      8175      8177      8174      8172      8175      8178
      8176      8175      8178      8179      8176      8175      8178      8180
      8176      8175      8178      8181      8177      8175      8178      8179
      8177      8175      8178      8180      8177      8175      8178      8181
      8182      8185      8188      8189      8182      8185      8188      8190
      8182      8185      8188      8191      8183      8182      8185      8186
      8183      8182      8185      8187      8183      8182      8185      8188
      8184      8182      8185      8186      8184      8182      8185      8187
      8184      8182      8185      8188      8185      8188      8191      8192
      8185      8188      8191      8193      8185      8188      8191      8194
      8186      8185      8188      8189      8186      8185      8188      8190
      8186      8185      8188      8191      8187      8185      8188      8189
      8187      8185      8188      8190      8187      8185      8188      8191
      8188      8191      8194      8195      8188      8191      8194      8196
      8188      8191      8194      8197      8189      8188      8191      8192
      8189      8188      8191      8193      8189      8188      8191      8194
      8190      8188      8191      8192      8190      8188      8191      8193
      8190      8188      8191      8194      8191      8194      8197      8198
      8191      8194      8197      8199      8191      8194      8197      8200
      8192      8191      8194      8195      8192      8191      8194      8196
      8192      8191      8194      8197      8193      8191      8194      8195
      8193      8191      8194      8196      8193      8191      8194      8197
      8194      8197      8200      8201      8194      8197      8200      8202
      8194      8197      8200      8203      8195      8194      8197      8198
      8195      8194      8197      8199      8195      8194      8197      8200
      8196      8194      8197      8198      8196      8194      8197      8199
      8196      8194      8197      8200      8197      8200      8203      8204
      8197      8200      8203      8205      8197      8200      8203      8206
      8198      8197      8200      8201      8198      8197      8200      8202
      8198      8197      8200      8203      8199      8197      8200      8201
      8199      8197      8200      8202      8199      8197      8200      8203
      8200      8203      8206      8207      8200      8203      8206      8208
      8200      8203      8206      8209      8201      8200      8203      8204
      8201      8200      8203      8205      8201      8200      8203      8206
      8202      8200      8203      8204      8202      8200      8203      8205
      8202      8200      8203      8206      8203      8206      8209      8210
      8203      8206      8209      8211      8203      8206      8209      8212
      8204      8203      8206      8207      8204      8203      8206      8208
      8204      8203      8206      8209      8205      8203      8206      8207
      8205      8203      8206      8208      8205      8203      8206      8209
      8206      8209      8212      8213      8206      8209      8212      8214
      8206      8209      8212      8215      8207      8206      8209      8210
      8207      8206      8209      8211      8207      8206      8209      8212
      8208      8206      8209      8210      8208      8206      8209      8211
      8208      8206      8209      8212      8209      8212      8215      8216
      8209      8212      8215      8217      8209      8212      8215      8218
      8210      8209      8212      8213      8210      8209      8212      8214
      8210      8209      8212      8215      8211      8209      8212      8213
      8211      8209      8212      8214      8211      8209      8212      8215
      8212      8215      8218      8219      8212      8215      8218      8220
      8212      8215      8218      8221      8213      8212      8215      8216
      8213      8212      8215      8217      8213      8212      8215      8218
      8214      8212      8215      8216      8214      8212      8215      8217
      8214      8212      8215      8218      8215      8218      8221      8222
      8215      8218      8221      8223      8215      8218      8221      8224
      8216      8215      8218      8219      8216      8215      8218      8220
      8216      8215      8218      8221      8217      8215      8218      8219
      8217      8215      8218      8220      8217      8215      8218      8221
      8219      8218      8221      8222      8219      8218      8221      8223
      8219      8218      8221      8224      8220      8218      8221      8222
      8220      8218      8221      8223      8220      8218      8221      8224
      8225      8226      8241      8242      8225      8226      8241      8243
      8225      8226      8241      8247      8226      8225      8229      8230
      8226      8225      8229      8231      8226      8225      8229      8232
      8226      8225      8233      8234      8226      8225      8233      8235
      8226      8225      8233      8236      8226      8225      8237      8238
      8226      8225      8237      8239      8226      8225      8237      8240
      8226      8241      8247      8244      8227      8226      8225      8229
      8227      8226      8225      8233      8227      8226      8225      8237
      8227      8226      8241      8242      8227      8226      8241      8243
      8227      8226      8241      8247      8228      8226      8225      8229
      8228      8226      8225      8233      8228      8226      8225      8237
      8228      8226      8241      8242      8228      8226      8241      8243
      8228      8226      8241      8247      8229      8225      8226      8241
      8229      8225      8233      8234      8229      8225      8233      8235
      8229      8225      8233      8236      8229      8225      8237      8238
      8229      8225      8237      8239      8229      8225      8237      8240
      8230      8229      8225      8233      8230      8229      8225      8237
      8231      8229      8225      8233      8231      8229      8225      8237
      8232      8229      8225      8233      8232      8229      8225      8237
      8233      8225      8226      8241      8233      8225      8237      8238
      8233      8225      8237      8239      8233      8225      8237      8240
      8234      8233      8225      8237      8235      8233      8225      8237
      8236      8233      8225      8237      8237      8225      8226      8241
      8241      8247      8244      8245      8241      8247      8244      8246
      8241      8247      8244      8248      8242      8241      8247      8244
      8243      8241      8247      8244      8244      8248      8249      8250
      8244      8248      8249      8251      8244      8248      8249      8252
      8245      8244      8248      8249      8246      8244      8248      8249
      8247      8244      8248      8249      8248      8249      8252      8253
      8248      8249      8252      8254      8248      8249      8252      8260
      8249      8252      8254      8255      8249      8252      8260      8261
      8249      8252      8260      8262      8249      8252      8260      8263
      8250      8249      8252      8253      8250      8249      8252      8254
      8250      8249      8252      8260      8251      8249      8252      8253
      8251      8249      8252      8254      8251      8249      8252      8260
      8252      8254      8255      8256      8252      8254      8255      8257
      8252      8260      8263      8264      8253      8252      8254      8255
      8253      8252      8260      8261      8253      8252      8260      8262
      8253      8252      8260      8263      8254      8252      8260      8261
      8254      8252      8260      8262      8254      8252      8260      8263
      8254      8255      8257      8258      8254      8255      8257      8259
      8254      8255      8257      8269      8255      8254      8252      8260
      8255      8257      8269      8270      8255      8257      8269      8271
      8255      8257      8269      8272      8256      8255      8257      8258
      8256      8255      8257      8259      8256      8255      8257      8269
      8257      8269      8272      8273      8257      8269      8272      8274
      8257      8269      8272      8275      8258      8257      8269      8270
      8258      8257      8269      8271      8258      8257      8269      8272
      8259      8257      8269      8270      8259      8257      8269      8271
      8259      8257      8269      8272      8260      8263      8264      8265
      8260      8263      8264      8266      8261      8260      8263      8264
      8262      8260      8263      8264      8263      8264      8266      8267
      8263      8264      8266      8268      8263      8264      8266      8316
      8264      8266      8316      8317      8264      8266      8316      8318
      8264      8266      8316      8319      8265      8264      8266      8267
      8265      8264      8266      8268      8265      8264      8266      8316
      8266      8316      8319      8320      8266      8316      8319      8321
      8266      8316      8319      8322      8267      8266      8316      8317
      8267      8266      8316      8318      8267      8266      8316      8319
      8268      8266      8316      8317      8268      8266      8316      8318
      8268      8266      8316      8319      8269      8272      8275      8276
      8269      8272      8275      8277      8269      8272      8275      8278
      8270      8269      8272      8273      8270      8269      8272      8274
      8270      8269      8272      8275      8271      8269      8272      8273
      8271      8269      8272      8274      8271      8269      8272      8275
      8272      8275      8278      8279      8272      8275      8278      8280
      8272      8275      8278      8281      8273      8272      8275      8276
      8273      8272      8275      8277      8273      8272      8275      8278
      8274      8272      8275      8276      8274      8272      8275      8277
      8274      8272      8275      8278      8275      8278      8281      8282
      8275      8278      8281      8283      8275      8278      8281      8284
      8276      8275      8278      8279      8276      8275      8278      8280
      8276      8275      8278      8281      8277      8275      8278      8279
      8277      8275      8278      8280      8277      8275      8278      8281
      8278      8281      8284      8285      8278      8281      8284      8286
      8278      8281      8284      8287      8279      8278      8281      8282
      8279      8278      8281      8283      8279      8278      8281      8284
      8280      8278      8281      8282      8280      8278      8281      8283
      8280      8278      8281      8284      8281      8284      8287      8288
      8281      8284      8287      8289      8282      8281      8284      8285
      8282      8281      8284      8286      8282      8281      8284      8287
      8283      8281      8284      8285      8283      8281      8284      8286
      8283      8281      8284      8287      8284      8287      8289      8290
      8284      8287      8289      8291      8285      8284      8287      8288
      8285      8284      8287      8289      8286      8284      8287      8288
      8286      8284      8287      8289      8287      8289      8291      8292
      8287      8289      8291      8293      8287      8289      8291      8294
      8288      8287      8289      8290      8288      8287      8289      8291
      8289      8291      8294      8295      8289      8291      8294      8296
      8289      8291      8294      8297      8290      8289      8291      8292
      8290      8289      8291      8293      8290      8289      8291      8294
      8291      8294      8297      8298      8291      8294      8297      8299
      8291      8294      8297      8300      8292      8291      8294      8295
      8292      8291      8294      8296      8292      8291      8294      8297
      8293      8291      8294      8295      8293      8291      8294      8296
      8293      8291      8294      8297      8294      8297      8300      8301
      8294      8297      8300      8302      8294      8297      8300      8303
      8295      8294      8297      8298      8295      8294      8297      8299
      8295      8294      8297      8300      8296      8294      8297      8298
      8296      8294      8297      8299      8296      8294      8297      8300
      8297      8300      8303      8304      8297      8300      8303      8305
      8297      8300      8303      8306      8298      8297      8300      8301
      8298      8297      8300      8302      8298      8297      8300      8303
      8299      8297      8300      8301      8299      8297      8300      8302
      8299      8297      8300      8303      8300      8303      8306      8307
      8300      8303      8306      8308      8300      8303      8306      8309
      8301      8300      8303      8304      8301      8300      8303      8305
      8301      8300      8303      8306      8302      8300      8303      8304
      8302      8300      8303      8305      8302      8300      8303      8306
      8303      8306      8309      8310      8303      8306      8309      8311
      8303      8306      8309      8312      8304      8303      8306      8307
      8304      8303      8306      8308      8304      8303      8306      8309
      8305      8303      8306      8307      8305      8303      8306      8308
      8305      8303      8306      8309      8306      8309      8312      8313
      8306      8309      8312      8314      8306      8309      8312      8315
      8307      8306      8309      8310      8307      8306      8309      8311
      8307      8306      8309      8312      8308      8306      8309      8310
      8308      8306      8309      8311      8308      8306      8309      8312
      8310      8309      8312      8313      8310      8309      8312      8314
      8310      8309      8312      8315      8311      8309      8312      8313
      8311      8309      8312      8314      8311      8309      8312      8315
      8316      8319      8322      8323      8316      8319      8322      8324
      8316      8319      8322      8325      8317      8316      8319      8320
      8317      8316      8319      8321      8317      8316      8319      8322
      8318      8316      8319      8320      8318      8316      8319      8321
      8318      8316      8319      8322      8319      8322      8325      8326
      8319      8322      8325      8327      8319      8322      8325      8328
      8320      8319      8322      8323      8320      8319      8322      8324
      8320      8319      8322      8325      8321      8319      8322      8323
      8321      8319      8322      8324      8321      8319      8322      8325
      8322      8325      8328      8329      8322      8325      8328      8330
      8322      8325      8328      8331      8323      8322      8325      8326
      8323      8322      8325      8327      8323      8322      8325      8328
      8324      8322      8325      8326      8324      8322      8325      8327
      8324      8322      8325      8328      8325      8328      8331      8332
      8325      8328      8331      8333      8325      8328      8331      8334
      8326      8325      8328      8329      8326      8325      8328      8330
      8326      8325      8328      8331      8327      8325      8328      8329
      8327      8325      8328      8330      8327      8325      8328      8331
      8328      8331      8334      8335      8328      8331      8334      8336
      8328      8331      8334      8337      8329      8328      8331      8332
      8329      8328      8331      8333      8329      8328      8331      8334
      8330      8328      8331      8332      8330      8328      8331      8333
      8330      8328      8331      8334      8331      8334      8337      8338
      8331      8334      8337      8339      8331      8334      8337      8340
      8332      8331      8334      8335      8332      8331      8334      8336
      8332      8331      8334      8337      8333      8331      8334      8335
      8333      8331      8334      8336      8333      8331      8334      8337
      8334      8337      8340      8341      8334      8337      8340      8342
      8334      8337      8340      8343      8335      8334      8337      8338
      8335      8334      8337      8339      8335      8334      8337      8340
      8336      8334      8337      8338      8336      8334      8337      8339
      8336      8334      8337      8340      8337      8340      8343      8344
      8337      8340      8343      8345      8337      8340      8343      8346
      8338      8337      8340      8341      8338      8337      8340      8342
      8338      8337      8340      8343      8339      8337      8340      8341
      8339      8337      8340      8342      8339      8337      8340      8343
      8340      8343      8346      8347      8340      8343      8346      8348
      8340      8343      8346      8349      8341      8340      8343      8344
      8341      8340      8343      8345      8341      8340      8343      8346
      8342      8340      8343      8344      8342      8340      8343      8345
      8342      8340      8343      8346      8343      8346      8349      8350
      8343      8346      8349      8351      8343      8346      8349      8352
      8344      8343      8346      8347      8344      8343      8346      8348
      8344      8343      8346      8349      8345      8343      8346      8347
      8345      8343      8346      8348      8345      8343      8346      8349
      8346      8349      8352      8353      8346      8349      8352      8354
      8346      8349      8352      8355      8347      8346      8349      8350
      8347      8346      8349      8351      8347      8346      8349      8352
      8348      8346      8349      8350      8348      8346      8349      8351
      8348      8346      8349      8352      8349      8352      8355      8356
      8349      8352      8355      8357      8349      8352      8355      8358
      8350      8349      8352      8353      8350      8349      8352      8354
      8350      8349      8352      8355      8351      8349      8352      8353
      8351      8349      8352      8354      8351      8349      8352      8355
      8353      8352      8355      8356      8353      8352      8355      8357
      8353      8352      8355      8358      8354      8352      8355      8356
      8354      8352      8355      8357      8354      8352      8355      8358
      8359      8363      8365      8366      8359      8363      8365      8367
      8359      8363      8368      8369      8359      8363      8368      8370
      8359      8363      8368      8374      8360      8359      8363      8364
      8360      8359      8363      8365      8360      8359      8363      8368
      8361      8359      8363      8364      8361      8359      8363      8365
      8361      8359      8363      8368      8362      8359      8363      8364
      8362      8359      8363      8365      8362      8359      8363      8368
      8363      8368      8374      8371      8364      8363      8365      8366
      8364      8363      8365      8367      8364      8363      8368      8369
      8364      8363      8368      8370      8364      8363      8368      8374
      8365      8363      8368      8369      8365      8363      8368      8370
      8365      8363      8368      8374      8366      8365      8363      8368
      8367      8365      8363      8368      8368      8374      8371      8372
      8368      8374      8371      8373      8368      8374      8371      8375
      8369      8368      8374      8371      8370      8368      8374      8371
      8371      8375      8376      8377      8371      8375      8376      8378
      8371      8375      8376      8379      8372      8371      8375      8376
      8373      8371      8375      8376      8374      8371      8375      8376
      8375      8376      8379      8380      8375      8376      8379      8381
      8375      8376      8379      8387      8376      8379      8381      8382
      8376      8379      8387      8388      8376      8379      8387      8389
      8376      8379      8387      8390      8377      8376      8379      8380
      8377      8376      8379      8381      8377      8376      8379      8387
      8378      8376      8379      8380      8378      8376      8379      8381
      8378      8376      8379      8387      8379      8381      8382      8383
      8379      8381      8382      8384      8379      8387      8390      8391
      8380      8379      8381      8382      8380      8379      8387      8388
      8380      8379      8387      8389      8380      8379      8387      8390
      8381      8379      8387      8388      8381      8379      8387      8389
      8381      8379      8387      8390      8381      8382      8384      8385
      8381      8382      8384      8386      8381      8382      8384      8396
      8382      8381      8379      8387      8382      8384      8396      8397
      8382      8384      8396      8398      8382      8384      8396      8399
      8383      8382      8384      8385      8383      8382      8384      8386
      8383      8382      8384      8396      8384      8396      8399      8400
      8384      8396      8399      8401      8384      8396      8399      8402
      8385      8384      8396      8397      8385      8384      8396      8398
      8385      8384      8396      8399      8386      8384      8396      8397
      8386      8384      8396      8398      8386      8384      8396      8399
      8387      8390      8391      8392      8387      8390      8391      8393
      8388      8387      8390      8391      8389      8387      8390      8391
      8390      8391      8393      8394      8390      8391      8393      8395
      8390      8391      8393      8443      8391      8393      8443      8444
      8391      8393      8443      8445      8391      8393      8443      8446
      8392      8391      8393      8394      8392      8391      8393      8395
      8392      8391      8393      8443      8393      8443      8446      8447
      8393      8443      8446      8448      8393      8443      8446      8449
      8394      8393      8443      8444      8394      8393      8443      8445
      8394      8393      8443      8446      8395      8393      8443      8444
      8395      8393      8443      8445      8395      8393      8443      8446
      8396      8399      8402      8403      8396      8399      8402      8404
      8396      8399      8402      8405      8397      8396      8399      8400
      8397      8396      8399      8401      8397      8396      8399      8402
      8398      8396      8399      8400      8398      8396      8399      8401
      8398      8396      8399      8402      8399      8402      8405      8406
      8399      8402      8405      8407      8399      8402      8405      8408
      8400      8399      8402      8403      8400      8399      8402      8404
      8400      8399      8402      8405      8401      8399      8402      8403
      8401      8399      8402      8404      8401      8399      8402      8405
      8402      8405      8408      8409      8402      8405      8408      8410
      8402      8405      8408      8411      8403      8402      8405      8406
      8403      8402      8405      8407      8403      8402      8405      8408
      8404      8402      8405      8406      8404      8402      8405      8407
      8404      8402      8405      8408      8405      8408      8411      8412
      8405      8408      8411      8413      8405      8408      8411      8414
      8406      8405      8408      8409      8406      8405      8408      8410
      8406      8405      8408      8411      8407      8405      8408      8409
      8407      8405      8408      8410      8407      8405      8408      8411
      8408      8411      8414      8415      8408      8411      8414      8416
      8409      8408      8411      8412      8409      8408      8411      8413
      8409      8408      8411      8414      8410      8408      8411      8412
      8410      8408      8411      8413      8410      8408      8411      8414
      8411      8414      8416      8417      8411      8414      8416      8418
      8412      8411      8414      8415      8412      8411      8414      8416
      8413      8411      8414      8415      8413      8411      8414      8416
      8414      8416      8418      8419      8414      8416      8418      8420
      8414      8416      8418      8421      8415      8414      8416      8417
      8415      8414      8416      8418      8416      8418      8421      8422
      8416      8418      8421      8423      8416      8418      8421      8424
      8417      8416      8418      8419      8417      8416      8418      8420
      8417      8416      8418      8421      8418      8421      8424      8425
      8418      8421      8424      8426      8418      8421      8424      8427
      8419      8418      8421      8422      8419      8418      8421      8423
      8419      8418      8421      8424      8420      8418      8421      8422
      8420      8418      8421      8423      8420      8418      8421      8424
      8421      8424      8427      8428      8421      8424      8427      8429
      8421      8424      8427      8430      8422      8421      8424      8425
      8422      8421      8424      8426      8422      8421      8424      8427
      8423      8421      8424      8425      8423      8421      8424      8426
      8423      8421      8424      8427      8424      8427      8430      8431
      8424      8427      8430      8432      8424      8427      8430      8433
      8425      8424      8427      8428      8425      8424      8427      8429
      8425      8424      8427      8430      8426      8424      8427      8428
      8426      8424      8427      8429      8426      8424      8427      8430
      8427      8430      8433      8434      8427      8430      8433      8435
      8427      8430      8433      8436      8428      8427      8430      8431
      8428      8427      8430      8432      8428      8427      8430      8433
      8429      8427      8430      8431      8429      8427      8430      8432
      8429      8427      8430      8433      8430      8433      8436      8437
      8430      8433      8436      8438      8430      8433      8436      8439
      8431      8430      8433      8434      8431      8430      8433      8435
      8431      8430      8433      8436      8432      8430      8433      8434
      8432      8430      8433      8435      8432      8430      8433      8436
      8433      8436      8439      8440      8433      8436      8439      8441
      8433      8436      8439      8442      8434      8433      8436      8437
      8434      8433      8436      8438      8434      8433      8436      8439
      8435      8433      8436      8437      8435      8433      8436      8438
      8435      8433      8436      8439      8437      8436      8439      8440
      8437      8436      8439      8441      8437      8436      8439      8442
      8438      8436      8439      8440      8438      8436      8439      8441
      8438      8436      8439      8442      8443      8446      8449      8450
      8443      8446      8449      8451      8443      8446      8449      8452
      8444      8443      8446      8447      8444      8443      8446      8448
      8444      8443      8446      8449      8445      8443      8446      8447
      8445      8443      8446      8448      8445      8443      8446      8449
      8446      8449      8452      8453      8446      8449      8452      8454
      8446      8449      8452      8455      8447      8446      8449      8450
      8447      8446      8449      8451      8447      8446      8449      8452
      8448      8446      8449      8450      8448      8446      8449      8451
      8448      8446      8449      8452      8449      8452      8455      8456
      8449      8452      8455      8457      8449      8452      8455      8458
      8450      8449      8452      8453      8450      8449      8452      8454
      8450      8449      8452      8455      8451      8449      8452      8453
      8451      8449      8452      8454      8451      8449      8452      8455
      8452      8455      8458      8459      8452      8455      8458      8460
      8452      8455      8458      8461      8453      8452      8455      8456
      8453      8452      8455      8457      8453      8452      8455      8458
      8454      8452      8455      8456      8454      8452      8455      8457
      8454      8452      8455      8458      8455      8458      8461      8462
      8455      8458      8461      8463      8455      8458      8461      8464
      8456      8455      8458      8459      8456      8455      8458      8460
      8456      8455      8458      8461      8457      8455      8458      8459
      8457      8455      8458      8460      8457      8455      8458      8461
      8458      8461      8464      8465      8458      8461      8464      8466
      8458      8461      8464      8467      8459      8458      8461      8462
      8459      8458      8461      8463      8459      8458      8461      8464
      8460      8458      8461      8462      8460      8458      8461      8463
      8460      8458      8461      8464      8461      8464      8467      8468
      8461      8464      8467      8469      8461      8464      8467      8470
      8462      8461      8464      8465      8462      8461      8464      8466
      8462      8461      8464      8467      8463      8461      8464      8465
      8463      8461      8464      8466      8463      8461      8464      8467
      8464      8467      8470      8471      8464      8467      8470      8472
      8464      8467      8470      8473      8465      8464      8467      8468
      8465      8464      8467      8469      8465      8464      8467      8470
      8466      8464      8467      8468      8466      8464      8467      8469
      8466      8464      8467      8470      8467      8470      8473      8474
      8467      8470      8473      8475      8467      8470      8473      8476
      8468      8467      8470      8471      8468      8467      8470      8472
      8468      8467      8470      8473      8469      8467      8470      8471
      8469      8467      8470      8472      8469      8467      8470      8473
      8470      8473      8476      8477      8470      8473      8476      8478
      8470      8473      8476      8479      8471      8470      8473      8474
      8471      8470      8473      8475      8471      8470      8473      8476
      8472      8470      8473      8474      8472      8470      8473      8475
      8472      8470      8473      8476      8473      8476      8479      8480
      8473      8476      8479      8481      8473      8476      8479      8482
      8474      8473      8476      8477      8474      8473      8476      8478
      8474      8473      8476      8479      8475      8473      8476      8477
      8475      8473      8476      8478      8475      8473      8476      8479
      8476      8479      8482      8483      8476      8479      8482      8484
      8476      8479      8482      8485      8477      8476      8479      8480
      8477      8476      8479      8481      8477      8476      8479      8482
      8478      8476      8479      8480      8478      8476      8479      8481
      8478      8476      8479      8482      8480      8479      8482      8483
      8480      8479      8482      8484      8480      8479      8482      8485
      8481      8479      8482      8483      8481      8479      8482      8484
      8481      8479      8482      8485      8486      8487      8502      8503
      8486      8487      8502      8504      8486      8487      8502      8508
      8487      8486      8490      8491      8487      8486      8490      8492
      8487      8486      8490      8493      8487      8486      8494      8495
      8487      8486      8494      8496      8487      8486      8494      8497
      8487      8486      8498      8499      8487      8486      8498      8500
      8487      8486      8498      8501      8487      8502      8508      8505
      8488      8487      8486      8490      8488      8487      8486      8494
      8488      8487      8486      8498      8488      8487      8502      8503
      8488      8487      8502      8504      8488      8487      8502      8508
      8489      8487      8486      8490      8489      8487      8486      8494
      8489      8487      8486      8498      8489      8487      8502      8503
      8489      8487      8502      8504      8489      8487      8502      8508
      8490      8486      8487      8502      8490      8486      8494      8495
      8490      8486      8494      8496      8490      8486      8494      8497
      8490      8486      8498      8499      8490      8486      8498      8500
      8490      8486      8498      8501      8491      8490      8486      8494
      8491      8490      8486      8498      8492      8490      8486      8494
      8492      8490      8486      8498      8493      8490      8486      8494
      8493      8490      8486      8498      8494      8486      8487      8502
      8494      8486      8498      8499      8494      8486      8498      8500
      8494      8486      8498      8501      8495      8494      8486      8498
      8496      8494      8486      8498      8497      8494      8486      8498
      8498      8486      8487      8502      8502      8508      8505      8506
      8502      8508      8505      8507      8502      8508      8505      8509
      8503      8502      8508      8505      8504      8502      8508      8505
      8505      8509      8510      8511      8505      8509      8510      8512
      8505      8509      8510      8513      8506      8505      8509      8510
      8507      8505      8509      8510      8508      8505      8509      8510
      8509      8510      8513      8514      8509      8510      8513      8515
      8509      8510      8513      8521      8510      8513      8515      8516
      8510      8513      8521      8522      8510      8513      8521      8523
      8510      8513      8521      8524      8511      8510      8513      8514
      8511      8510      8513      8515      8511      8510      8513      8521
      8512      8510      8513      8514      8512      8510      8513      8515
      8512      8510      8513      8521      8513      8515      8516      8517
      8513      8515      8516      8518      8513      8521      8524      8525
      8514      8513      8515      8516      8514      8513      8521      8522
      8514      8513      8521      8523      8514      8513      8521      8524
      8515      8513      8521      8522      8515      8513      8521      8523
      8515      8513      8521      8524      8515      8516      8518      8519
      8515      8516      8518      8520      8515      8516      8518      8530
      8516      8515      8513      8521      8516      8518      8530      8531
      8516      8518      8530      8532      8516      8518      8530      8533
      8517      8516      8518      8519      8517      8516      8518      8520
      8517      8516      8518      8530      8518      8530      8533      8534
      8518      8530      8533      8535      8518      8530      8533      8536
      8519      8518      8530      8531      8519      8518      8530      8532
      8519      8518      8530      8533      8520      8518      8530      8531
      8520      8518      8530      8532      8520      8518      8530      8533
      8521      8524      8525      8526      8521      8524      8525      8527
      8522      8521      8524      8525      8523      8521      8524      8525
      8524      8525      8527      8528      8524      8525      8527      8529
      8524      8525      8527      8577      8525      8527      8577      8578
      8525      8527      8577      8579      8525      8527      8577      8580
      8526      8525      8527      8528      8526      8525      8527      8529
      8526      8525      8527      8577      8527      8577      8580      8581
      8527      8577      8580      8582      8527      8577      8580      8583
      8528      8527      8577      8578      8528      8527      8577      8579
      8528      8527      8577      8580      8529      8527      8577      8578
      8529      8527      8577      8579      8529      8527      8577      8580
      8530      8533      8536      8537      8530      8533      8536      8538
      8530      8533      8536      8539      8531      8530      8533      8534
      8531      8530      8533      8535      8531      8530      8533      8536
      8532      8530      8533      8534      8532      8530      8533      8535
      8532      8530      8533      8536      8533      8536      8539      8540
      8533      8536      8539      8541      8533      8536      8539      8542
      8534      8533      8536      8537      8534      8533      8536      8538
      8534      8533      8536      8539      8535      8533      8536      8537
      8535      8533      8536      8538      8535      8533      8536      8539
      8536      8539      8542      8543      8536      8539      8542      8544
      8536      8539      8542      8545      8537      8536      8539      8540
      8537      8536      8539      8541      8537      8536      8539      8542
      8538      8536      8539      8540      8538      8536      8539      8541
      8538      8536      8539      8542      8539      8542      8545      8546
      8539      8542      8545      8547      8539      8542      8545      8548
      8540      8539      8542      8543      8540      8539      8542      8544
      8540      8539      8542      8545      8541      8539      8542      8543
      8541      8539      8542      8544      8541      8539      8542      8545
      8542      8545      8548      8549      8542      8545      8548      8550
      8543      8542      8545      8546      8543      8542      8545      8547
      8543      8542      8545      8548      8544      8542      8545      8546
      8544      8542      8545      8547      8544      8542      8545      8548
      8545      8548      8550      8551      8545      8548      8550      8552
      8546      8545      8548      8549      8546      8545      8548      8550
      8547      8545      8548      8549      8547      8545      8548      8550
      8548      8550      8552      8553      8548      8550      8552      8554
      8548      8550      8552      8555      8549      8548      8550      8551
      8549      8548      8550      8552      8550      8552      8555      8556
      8550      8552      8555      8557      8550      8552      8555      8558
      8551      8550      8552      8553      8551      8550      8552      8554
      8551      8550      8552      8555      8552      8555      8558      8559
      8552      8555      8558      8560      8552      8555      8558      8561
      8553      8552      8555      8556      8553      8552      8555      8557
      8553      8552      8555      8558      8554      8552      8555      8556
      8554      8552      8555      8557      8554      8552      8555      8558
      8555      8558      8561      8562      8555      8558      8561      8563
      8555      8558      8561      8564      8556      8555      8558      8559
      8556      8555      8558      8560      8556      8555      8558      8561
      8557      8555      8558      8559      8557      8555      8558      8560
      8557      8555      8558      8561      8558      8561      8564      8565
      8558      8561      8564      8566      8558      8561      8564      8567
      8559      8558      8561      8562      8559      8558      8561      8563
      8559      8558      8561      8564      8560      8558      8561      8562
      8560      8558      8561      8563      8560      8558      8561      8564
      8561      8564      8567      8568      8561      8564      8567      8569
      8561      8564      8567      8570      8562      8561      8564      8565
      8562      8561      8564      8566      8562      8561      8564      8567
      8563      8561      8564      8565      8563      8561      8564      8566
      8563      8561      8564      8567      8564      8567      8570      8571
      8564      8567      8570      8572      8564      8567      8570      8573
      8565      8564      8567      8568      8565      8564      8567      8569
      8565      8564      8567      8570      8566      8564      8567      8568
      8566      8564      8567      8569      8566      8564      8567      8570
      8567      8570      8573      8574      8567      8570      8573      8575
      8567      8570      8573      8576      8568      8567      8570      8571
      8568      8567      8570      8572      8568      8567      8570      8573
      8569      8567      8570      8571      8569      8567      8570      8572
      8569      8567      8570      8573      8571      8570      8573      8574
      8571      8570      8573      8575      8571      8570      8573      8576
      8572      8570      8573      8574      8572      8570      8573      8575
      8572      8570      8573      8576      8577      8580      8583      8584
      8577      8580      8583      8585      8577      8580      8583      8586
      8578      8577      8580      8581      8578      8577      8580      8582
      8578      8577      8580      8583      8579      8577      8580      8581
      8579      8577      8580      8582      8579      8577      8580      8583
      8580      8583      8586      8587      8580      8583      8586      8588
      8580      8583      8586      8589      8581      8580      8583      8584
      8581      8580      8583      8585      8581      8580      8583      8586
      8582      8580      8583      8584      8582      8580      8583      8585
      8582      8580      8583      8586      8583      8586      8589      8590
      8583      8586      8589      8591      8583      8586      8589      8592
      8584      8583      8586      8587      8584      8583      8586      8588
      8584      8583      8586      8589      8585      8583      8586      8587
      8585      8583      8586      8588      8585      8583      8586      8589
      8586      8589      8592      8593      8586      8589      8592      8594
      8586      8589      8592      8595      8587      8586      8589      8590
      8587      8586      8589      8591      8587      8586      8589      8592
      8588      8586      8589      8590      8588      8586      8589      8591
      8588      8586      8589      8592      8589      8592      8595      8596
      8589      8592      8595      8597      8589      8592      8595      8598
      8590      8589      8592      8593      8590      8589      8592      8594
      8590      8589      8592      8595      8591      8589      8592      8593
      8591      8589      8592      8594      8591      8589      8592      8595
      8592      8595      8598      8599      8592      8595      8598      8600
      8592      8595      8598      8601      8593      8592      8595      8596
      8593      8592      8595      8597      8593      8592      8595      8598
      8594      8592      8595      8596      8594      8592      8595      8597
      8594      8592      8595      8598      8595      8598      8601      8602
      8595      8598      8601      8603      8595      8598      8601      8604
      8596      8595      8598      8599      8596      8595      8598      8600
      8596      8595      8598      8601      8597      8595      8598      8599
      8597      8595      8598      8600      8597      8595      8598      8601
      8598      8601      8604      8605      8598      8601      8604      8606
      8598      8601      8604      8607      8599      8598      8601      8602
      8599      8598      8601      8603      8599      8598      8601      8604
      8600      8598      8601      8602      8600      8598      8601      8603
      8600      8598      8601      8604      8601      8604      8607      8608
      8601      8604      8607      8609      8601      8604      8607      8610
      8602      8601      8604      8605      8602      8601      8604      8606
      8602      8601      8604      8607      8603      8601      8604      8605
      8603      8601      8604      8606      8603      8601      8604      8607
      8604      8607      8610      8611      8604      8607      8610      8612
      8604      8607      8610      8613      8605      8604      8607      8608
      8605      8604      8607      8609      8605      8604      8607      8610
      8606      8604      8607      8608      8606      8604      8607      8609
      8606      8604      8607      8610      8607      8610      8613      8614
      8607      8610      8613      8615      8607      8610      8613      8616
      8608      8607      8610      8611      8608      8607      8610      8612
      8608      8607      8610      8613      8609      8607      8610      8611
      8609      8607      8610      8612      8609      8607      8610      8613
      8610      8613      8616      8617      8610      8613      8616      8618
      8610      8613      8616      8619      8611      8610      8613      8614
      8611      8610      8613      8615      8611      8610      8613      8616
      8612      8610      8613      8614      8612      8610      8613      8615
      8612      8610      8613      8616      8614      8613      8616      8617
      8614      8613      8616      8618      8614      8613      8616      8619
      8615      8613      8616      8617      8615      8613      8616      8618
      8615      8613      8616      8619      8620      8621      8636      8637
      8620      8621      8636      8638      8620      8621      8636      8642
      8621      8620      8624      8625      8621      8620      8624      8626
      8621      8620      8624      8627      8621      8620      8628      8629
      8621      8620      8628      8630      8621      8620      8628      8631
      8621      8620      8632      8633      8621      8620      8632      8634
      8621      8620      8632      8635      8621      8636      8642      8639
      8622      8621      8620      8624      8622      8621      8620      8628
      8622      8621      8620      8632      8622      8621      8636      8637
      8622      8621      8636      8638      8622      8621      8636      8642
      8623      8621      8620      8624      8623      8621      8620      8628
      8623      8621      8620      8632      8623      8621      8636      8637
      8623      8621      8636      8638      8623      8621      8636      8642
      8624      8620      8621      8636      8624      8620      8628      8629
      8624      8620      8628      8630      8624      8620      8628      8631
      8624      8620      8632      8633      8624      8620      8632      8634
      8624      8620      8632      8635      8625      8624      8620      8628
      8625      8624      8620      8632      8626      8624      8620      8628
      8626      8624      8620      8632      8627      8624      8620      8628
      8627      8624      8620      8632      8628      8620      8621      8636
      8628      8620      8632      8633      8628      8620      8632      8634
      8628      8620      8632      8635      8629      8628      8620      8632
      8630      8628      8620      8632      8631      8628      8620      8632
      8632      8620      8621      8636      8636      8642      8639      8640
      8636      8642      8639      8641      8636      8642      8639      8643
      8637      8636      8642      8639      8638      8636      8642      8639
      8639      8643      8644      8645      8639      8643      8644      8646
      8639      8643      8644      8647      8640      8639      8643      8644
      8641      8639      8643      8644      8642      8639      8643      8644
      8643      8644      8647      8648      8643      8644      8647      8649
      8643      8644      8647      8655      8644      8647      8649      8650
      8644      8647      8655      8656      8644      8647      8655      8657
      8644      8647      8655      8658      8645      8644      8647      8648
      8645      8644      8647      8649      8645      8644      8647      8655
      8646      8644      8647      8648      8646      8644      8647      8649
      8646      8644      8647      8655      8647      8649      8650      8651
      8647      8649      8650      8652      8647      8655      8658      8659
      8648      8647      8649      8650      8648      8647      8655      8656
      8648      8647      8655      8657      8648      8647      8655      8658
      8649      8647      8655      8656      8649      8647      8655      8657
      8649      8647      8655      8658      8649      8650      8652      8653
      8649      8650      8652      8654      8649      8650      8652      8664
      8650      8649      8647      8655      8650      8652      8664      8665
      8650      8652      8664      8666      8650      8652      8664      8667
      8651      8650      8652      8653      8651      8650      8652      8654
      8651      8650      8652      8664      8652      8664      8667      8668
      8652      8664      8667      8669      8652      8664      8667      8670
      8653      8652      8664      8665      8653      8652      8664      8666
      8653      8652      8664      8667      8654      8652      8664      8665
      8654      8652      8664      8666      8654      8652      8664      8667
      8655      8658      8659      8660      8655      8658      8659      8661
      8656      8655      8658      8659      8657      8655      8658      8659
      8658      8659      8661      8662      8658      8659      8661      8663
      8658      8659      8661      8711      8659      8661      8711      8712
      8659      8661      8711      8713      8659      8661      8711      8714
      8660      8659      8661      8662      8660      8659      8661      8663
      8660      8659      8661      8711      8661      8711      8714      8715
      8661      8711      8714      8716      8661      8711      8714      8717
      8662      8661      8711      8712      8662      8661      8711      8713
      8662      8661      8711      8714      8663      8661      8711      8712
      8663      8661      8711      8713      8663      8661      8711      8714
      8664      8667      8670      8671      8664      8667      8670      8672
      8664      8667      8670      8673      8665      8664      8667      8668
      8665      8664      8667      8669      8665      8664      8667      8670
      8666      8664      8667      8668      8666      8664      8667      8669
      8666      8664      8667      8670      8667      8670      8673      8674
      8667      8670      8673      8675      8667      8670      8673      8676
      8668      8667      8670      8671      8668      8667      8670      8672
      8668      8667      8670      8673      8669      8667      8670      8671
      8669      8667      8670      8672      8669      8667      8670      8673
      8670      8673      8676      8677      8670      8673      8676      8678
      8670      8673      8676      8679      8671      8670      8673      8674
      8671      8670      8673      8675      8671      8670      8673      8676
      8672      8670      8673      8674      8672      8670      8673      8675
      8672      8670      8673      8676      8673      8676      8679      8680
      8673      8676      8679      8681      8673      8676      8679      8682
      8674      8673      8676      8677      8674      8673      8676      8678
      8674      8673      8676      8679      8675      8673      8676      8677
      8675      8673      8676      8678      8675      8673      8676      8679
      8676      8679      8682      8683      8676      8679      8682      8684
      8677      8676      8679      8680      8677      8676      8679      8681
      8677      8676      8679      8682      8678      8676      8679      8680
      8678      8676      8679      8681      8678      8676      8679      8682
      8679      8682      8684      8685      8679      8682      8684      8686
      8680      8679      8682      8683      8680      8679      8682      8684
      8681      8679      8682      8683      8681      8679      8682      8684
      8682      8684      8686      8687      8682      8684      8686      8688
      8682      8684      8686      8689      8683      8682      8684      8685
      8683      8682      8684      8686      8684      8686      8689      8690
      8684      8686      8689      8691      8684      8686      8689      8692
      8685      8684      8686      8687      8685      8684      8686      8688
      8685      8684      8686      8689      8686      8689      8692      8693
      8686      8689      8692      8694      8686      8689      8692      8695
      8687      8686      8689      8690      8687      8686      8689      8691
      8687      8686      8689      8692      8688      8686      8689      8690
      8688      8686      8689      8691      8688      8686      8689      8692
      8689      8692      8695      8696      8689      8692      8695      8697
      8689      8692      8695      8698      8690      8689      8692      8693
      8690      8689      8692      8694      8690      8689      8692      8695
      8691      8689      8692      8693      8691      8689      8692      8694
      8691      8689      8692      8695      8692      8695      8698      8699
      8692      8695      8698      8700      8692      8695      8698      8701
      8693      8692      8695      8696      8693      8692      8695      8697
      8693      8692      8695      8698      8694      8692      8695      8696
      8694      8692      8695      8697      8694      8692      8695      8698
      8695      8698      8701      8702      8695      8698      8701      8703
      8695      8698      8701      8704      8696      8695      8698      8699
      8696      8695      8698      8700      8696      8695      8698      8701
      8697      8695      8698      8699      8697      8695      8698      8700
      8697      8695      8698      8701      8698      8701      8704      8705
      8698      8701      8704      8706      8698      8701      8704      8707
      8699      8698      8701      8702      8699      8698      8701      8703
      8699      8698      8701      8704      8700      8698      8701      8702
      8700      8698      8701      8703      8700      8698      8701      8704
      8701      8704      8707      8708      8701      8704      8707      8709
      8701      8704      8707      8710      8702      8701      8704      8705
      8702      8701      8704      8706      8702      8701      8704      8707
      8703      8701      8704      8705      8703      8701      8704      8706
      8703      8701      8704      8707      8705      8704      8707      8708
      8705      8704      8707      8709      8705      8704      8707      8710
      8706      8704      8707      8708      8706      8704      8707      8709
      8706      8704      8707      8710      8711      8714      8717      8718
      8711      8714      8717      8719      8711      8714      8717      8720
      8712      8711      8714      8715      8712      8711      8714      8716
      8712      8711      8714      8717      8713      8711      8714      8715
      8713      8711      8714      8716      8713      8711      8714      8717
      8714      8717      8720      8721      8714      8717      8720      8722
      8714      8717      8720      8723      8715      8714      8717      8718
      8715      8714      8717      8719      8715      8714      8717      8720
      8716      8714      8717      8718      8716      8714      8717      8719
      8716      8714      8717      8720      8717      8720      8723      8724
      8717      8720      8723      8725      8717      8720      8723      8726
      8718      8717      8720      8721      8718      8717      8720      8722
      8718      8717      8720      8723      8719      8717      8720      8721
      8719      8717      8720      8722      8719      8717      8720      8723
      8720      8723      8726      8727      8720      8723      8726      8728
      8720      8723      8726      8729      8721      8720      8723      8724
      8721      8720      8723      8725      8721      8720      8723      8726
      8722      8720      8723      8724      8722      8720      8723      8725
      8722      8720      8723      8726      8723      8726      8729      8730
      8723      8726      8729      8731      8723      8726      8729      8732
      8724      8723      8726      8727      8724      8723      8726      8728
      8724      8723      8726      8729      8725      8723      8726      8727
      8725      8723      8726      8728      8725      8723      8726      8729
      8726      8729      8732      8733      8726      8729      8732      8734
      8726      8729      8732      8735      8727      8726      8729      8730
      8727      8726      8729      8731      8727      8726      8729      8732
      8728      8726      8729      8730      8728      8726      8729      8731
      8728      8726      8729      8732      8729      8732      8735      8736
      8729      8732      8735      8737      8729      8732      8735      8738
      8730      8729      8732      8733      8730      8729      8732      8734
      8730      8729      8732      8735      8731      8729      8732      8733
      8731      8729      8732      8734      8731      8729      8732      8735
      8732      8735      8738      8739      8732      8735      8738      8740
      8732      8735      8738      8741      8733      8732      8735      8736
      8733      8732      8735      8737      8733      8732      8735      8738
      8734      8732      8735      8736      8734      8732      8735      8737
      8734      8732      8735      8738      8735      8738      8741      8742
      8735      8738      8741      8743      8735      8738      8741      8744
      8736      8735      8738      8739      8736      8735      8738      8740
      8736      8735      8738      8741      8737      8735      8738      8739
      8737      8735      8738      8740      8737      8735      8738      8741
      8738      8741      8744      8745      8738      8741      8744      8746
      8738      8741      8744      8747      8739      8738      8741      8742
      8739      8738      8741      8743      8739      8738      8741      8744
      8740      8738      8741      8742      8740      8738      8741      8743
      8740      8738      8741      8744      8741      8744      8747      8748
      8741      8744      8747      8749      8741      8744      8747      8750
      8742      8741      8744      8745      8742      8741      8744      8746
      8742      8741      8744      8747      8743      8741      8744      8745
      8743      8741      8744      8746      8743      8741      8744      8747
      8744      8747      8750      8751      8744      8747      8750      8752
      8744      8747      8750      8753      8745      8744      8747      8748
      8745      8744      8747      8749      8745      8744      8747      8750
      8746      8744      8747      8748      8746      8744      8747      8749
      8746      8744      8747      8750      8748      8747      8750      8751
      8748      8747      8750      8752      8748      8747      8750      8753
      8749      8747      8750      8751      8749      8747      8750      8752
      8749      8747      8750      8753      8754      8755      8770      8771
      8754      8755      8770      8772      8754      8755      8770      8776
      8755      8754      8758      8759      8755      8754      8758      8760
      8755      8754      8758      8761      8755      8754      8762      8763
      8755      8754      8762      8764      8755      8754      8762      8765
      8755      8754      8766      8767      8755      8754      8766      8768
      8755      8754      8766      8769      8755      8770      8776      8773
      8756      8755      8754      8758      8756      8755      8754      8762
      8756      8755      8754      8766      8756      8755      8770      8771
      8756      8755      8770      8772      8756      8755      8770      8776
      8757      8755      8754      8758      8757      8755      8754      8762
      8757      8755      8754      8766      8757      8755      8770      8771
      8757      8755      8770      8772      8757      8755      8770      8776
      8758      8754      8755      8770      8758      8754      8762      8763
      8758      8754      8762      8764      8758      8754      8762      8765
      8758      8754      8766      8767      8758      8754      8766      8768
      8758      8754      8766      8769      8759      8758      8754      8762
      8759      8758      8754      8766      8760      8758      8754      8762
      8760      8758      8754      8766      8761      8758      8754      8762
      8761      8758      8754      8766      8762      8754      8755      8770
      8762      8754      8766      8767      8762      8754      8766      8768
      8762      8754      8766      8769      8763      8762      8754      8766
      8764      8762      8754      8766      8765      8762      8754      8766
      8766      8754      8755      8770      8770      8776      8773      8774
      8770      8776      8773      8775      8770      8776      8773      8777
      8771      8770      8776      8773      8772      8770      8776      8773
      8773      8777      8778      8779      8773      8777      8778      8780
      8773      8777      8778      8781      8774      8773      8777      8778
      8775      8773      8777      8778      8776      8773      8777      8778
      8777      8778      8781      8782      8777      8778      8781      8783
      8777      8778      8781      8789      8778      8781      8783      8784
      8778      8781      8789      8790      8778      8781      8789      8791
      8778      8781      8789      8792      8779      8778      8781      8782
      8779      8778      8781      8783      8779      8778      8781      8789
      8780      8778      8781      8782      8780      8778      8781      8783
      8780      8778      8781      8789      8781      8783      8784      8785
      8781      8783      8784      8786      8781      8789      8792      8793
      8782      8781      8783      8784      8782      8781      8789      8790
      8782      8781      8789      8791      8782      8781      8789      8792
      8783      8781      8789      8790      8783      8781      8789      8791
      8783      8781      8789      8792      8783      8784      8786      8787
      8783      8784      8786      8788      8783      8784      8786      8798
      8784      8783      8781      8789      8784      8786      8798      8799
      8784      8786      8798      8800      8784      8786      8798      8801
      8785      8784      8786      8787      8785      8784      8786      8788
      8785      8784      8786      8798      8786      8798      8801      8802
      8786      8798      8801      8803      8786      8798      8801      8804
      8787      8786      8798      8799      8787      8786      8798      8800
      8787      8786      8798      8801      8788      8786      8798      8799
      8788      8786      8798      8800      8788      8786      8798      8801
      8789      8792      8793      8794      8789      8792      8793      8795
      8790      8789      8792      8793      8791      8789      8792      8793
      8792      8793      8795      8796      8792      8793      8795      8797
      8792      8793      8795      8845      8793      8795      8845      8846
      8793      8795      8845      8847      8793      8795      8845      8848
      8794      8793      8795      8796      8794      8793      8795      8797
      8794      8793      8795      8845      8795      8845      8848      8849
      8795      8845      8848      8850      8795      8845      8848      8851
      8796      8795      8845      8846      8796      8795      8845      8847
      8796      8795      8845      8848      8797      8795      8845      8846
      8797      8795      8845      8847      8797      8795      8845      8848
      8798      8801      8804      8805      8798      8801      8804      8806
      8798      8801      8804      8807      8799      8798      8801      8802
      8799      8798      8801      8803      8799      8798      8801      8804
      8800      8798      8801      8802      8800      8798      8801      8803
      8800      8798      8801      8804      8801      8804      8807      8808
      8801      8804      8807      8809      8801      8804      8807      8810
      8802      8801      8804      8805      8802      8801      8804      8806
      8802      8801      8804      8807      8803      8801      8804      8805
      8803      8801      8804      8806      8803      8801      8804      8807
      8804      8807      8810      8811      8804      8807      8810      8812
      8804      8807      8810      8813      8805      8804      8807      8808
      8805      8804      8807      8809      8805      8804      8807      8810
      8806      8804      8807      8808      8806      8804      8807      8809
      8806      8804      8807      8810      8807      8810      8813      8814
      8807      8810      8813      8815      8807      8810      8813      8816
      8808      8807      8810      8811      8808      8807      8810      8812
      8808      8807      8810      8813      8809      8807      8810      8811
      8809      8807      8810      8812      8809      8807      8810      8813
      8810      8813      8816      8817      8810      8813      8816      8818
      8811      8810      8813      8814      8811      8810      8813      8815
      8811      8810      8813      8816      8812      8810      8813      8814
      8812      8810      8813      8815      8812      8810      8813      8816
      8813      8816      8818      8819      8813      8816      8818      8820
      8814      8813      8816      8817      8814      8813      8816      8818
      8815      8813      8816      8817      8815      8813      8816      8818
      8816      8818      8820      8821      8816      8818      8820      8822
      8816      8818      8820      8823      8817      8816      8818      8819
      8817      8816      8818      8820      8818      8820      8823      8824
      8818      8820      8823      8825      8818      8820      8823      8826
      8819      8818      8820      8821      8819      8818      8820      8822
      8819      8818      8820      8823      8820      8823      8826      8827
      8820      8823      8826      8828      8820      8823      8826      8829
      8821      8820      8823      8824      8821      8820      8823      8825
      8821      8820      8823      8826      8822      8820      8823      8824
      8822      8820      8823      8825      8822      8820      8823      8826
      8823      8826      8829      8830      8823      8826      8829      8831
      8823      8826      8829      8832      8824      8823      8826      8827
      8824      8823      8826      8828      8824      8823      8826      8829
      8825      8823      8826      8827      8825      8823      8826      8828
      8825      8823      8826      8829      8826      8829      8832      8833
      8826      8829      8832      8834      8826      8829      8832      8835
      8827      8826      8829      8830      8827      8826      8829      8831
      8827      8826      8829      8832      8828      8826      8829      8830
      8828      8826      8829      8831      8828      8826      8829      8832
      8829      8832      8835      8836      8829      8832      8835      8837
      8829      8832      8835      8838      8830      8829      8832      8833
      8830      8829      8832      8834      8830      8829      8832      8835
      8831      8829      8832      8833      8831      8829      8832      8834
      8831      8829      8832      8835      8832      8835      8838      8839
      8832      8835      8838      8840      8832      8835      8838      8841
      8833      8832      8835      8836      8833      8832      8835      8837
      8833      8832      8835      8838      8834      8832      8835      8836
      8834      8832      8835      8837      8834      8832      8835      8838
      8835      8838      8841      8842      8835      8838      8841      8843
      8835      8838      8841      8844      8836      8835      8838      8839
      8836      8835      8838      8840      8836      8835      8838      8841
      8837      8835      8838      8839      8837      8835      8838      8840
      8837      8835      8838      8841      8839      8838      8841      8842
      8839      8838      8841      8843      8839      8838      8841      8844
      8840      8838      8841      8842      8840      8838      8841      8843
      8840      8838      8841      8844      8845      8848      8851      8852
      8845      8848      8851      8853      8845      8848      8851      8854
      8846      8845      8848      8849      8846      8845      8848      8850
      8846      8845      8848      8851      8847      8845      8848      8849
      8847      8845      8848      8850      8847      8845      8848      8851
      8848      8851      8854      8855      8848      8851      8854      8856
      8848      8851      8854      8857      8849      8848      8851      8852
      8849      8848      8851      8853      8849      8848      8851      8854
      8850      8848      8851      8852      8850      8848      8851      8853
      8850      8848      8851      8854      8851      8854      8857      8858
      8851      8854      8857      8859      8851      8854      8857      8860
      8852      8851      8854      8855      8852      8851      8854      8856
      8852      8851      8854      8857      8853      8851      8854      8855
      8853      8851      8854      8856      8853      8851      8854      8857
      8854      8857      8860      8861      8854      8857      8860      8862
      8854      8857      8860      8863      8855      8854      8857      8858
      8855      8854      8857      8859      8855      8854      8857      8860
      8856      8854      8857      8858      8856      8854      8857      8859
      8856      8854      8857      8860      8857      8860      8863      8864
      8857      8860      8863      8865      8857      8860      8863      8866
      8858      8857      8860      8861      8858      8857      8860      8862
      8858      8857      8860      8863      8859      8857      8860      8861
      8859      8857      8860      8862      8859      8857      8860      8863
      8860      8863      8866      8867      8860      8863      8866      8868
      8860      8863      8866      8869      8861      8860      8863      8864
      8861      8860      8863      8865      8861      8860      8863      8866
      8862      8860      8863      8864      8862      8860      8863      8865
      8862      8860      8863      8866      8863      8866      8869      8870
      8863      8866      8869      8871      8863      8866      8869      8872
      8864      8863      8866      8867      8864      8863      8866      8868
      8864      8863      8866      8869      8865      8863      8866      8867
      8865      8863      8866      8868      8865      8863      8866      8869
      8866      8869      8872      8873      8866      8869      8872      8874
      8866      8869      8872      8875      8867      8866      8869      8870
      8867      8866      8869      8871      8867      8866      8869      8872
      8868      8866      8869      8870      8868      8866      8869      8871
      8868      8866      8869      8872      8869      8872      8875      8876
      8869      8872      8875      8877      8869      8872      8875      8878
      8870      8869      8872      8873      8870      8869      8872      8874
      8870      8869      8872      8875      8871      8869      8872      8873
      8871      8869      8872      8874      8871      8869      8872      8875
      8872      8875      8878      8879      8872      8875      8878      8880
      8872      8875      8878      8881      8873      8872      8875      8876
      8873      8872      8875      8877      8873      8872      8875      8878
      8874      8872      8875      8876      8874      8872      8875      8877
      8874      8872      8875      8878      8875      8878      8881      8882
      8875      8878      8881      8883      8875      8878      8881      8884
      8876      8875      8878      8879      8876      8875      8878      8880
      8876      8875      8878      8881      8877      8875      8878      8879
      8877      8875      8878      8880      8877      8875      8878      8881
      8878      8881      8884      8885      8878      8881      8884      8886
      8878      8881      8884      8887      8879      8878      8881      8882
      8879      8878      8881      8883      8879      8878      8881      8884
      8880      8878      8881      8882      8880      8878      8881      8883
      8880      8878      8881      8884      8882      8881      8884      8885
      8882      8881      8884      8886      8882      8881      8884      8887
      8883      8881      8884      8885      8883      8881      8884      8886
      8883      8881      8884      8887      8888      8892      8894      8895
      8888      8892      8894      8896      8888      8892      8897      8898
      8888      8892      8897      8899      8888      8892      8897      8903
      8889      8888      8892      8893      8889      8888      8892      8894
      8889      8888      8892      8897      8890      8888      8892      8893
      8890      8888      8892      8894      8890      8888      8892      8897
      8891      8888      8892      8893      8891      8888      8892      8894
      8891      8888      8892      8897      8892      8897      8903      8900
      8893      8892      8894      8895      8893      8892      8894      8896
      8893      8892      8897      8898      8893      8892      8897      8899
      8893      8892      8897      8903      8894      8892      8897      8898
      8894      8892      8897      8899      8894      8892      8897      8903
      8895      8894      8892      8897      8896      8894      8892      8897
      8897      8903      8900      8901      8897      8903      8900      8902
      8897      8903      8900      8904      8898      8897      8903      8900
      8899      8897      8903      8900      8900      8904      8905      8906
      8900      8904      8905      8907      8900      8904      8905      8908
      8901      8900      8904      8905      8902      8900      8904      8905
      8903      8900      8904      8905      8904      8905      8908      8909
      8904      8905      8908      8910      8904      8905      8908      8916
      8905      8908      8910      8911      8905      8908      8916      8917
      8905      8908      8916      8918      8905      8908      8916      8919
      8906      8905      8908      8909      8906      8905      8908      8910
      8906      8905      8908      8916      8907      8905      8908      8909
      8907      8905      8908      8910      8907      8905      8908      8916
      8908      8910      8911      8912      8908      8910      8911      8913
      8908      8916      8919      8920      8909      8908      8910      8911
      8909      8908      8916      8917      8909      8908      8916      8918
      8909      8908      8916      8919      8910      8908      8916      8917
      8910      8908      8916      8918      8910      8908      8916      8919
      8910      8911      8913      8914      8910      8911      8913      8915
      8910      8911      8913      8925      8911      8910      8908      8916
      8911      8913      8925      8926      8911      8913      8925      8927
      8911      8913      8925      8928      8912      8911      8913      8914
      8912      8911      8913      8915      8912      8911      8913      8925
      8913      8925      8928      8929      8913      8925      8928      8930
      8913      8925      8928      8931      8914      8913      8925      8926
      8914      8913      8925      8927      8914      8913      8925      8928
      8915      8913      8925      8926      8915      8913      8925      8927
      8915      8913      8925      8928      8916      8919      8920      8921
      8916      8919      8920      8922      8917      8916      8919      8920
      8918      8916      8919      8920      8919      8920      8922      8923
      8919      8920      8922      8924      8919      8920      8922      8972
      8920      8922      8972      8973      8920      8922      8972      8974
      8920      8922      8972      8975      8921      8920      8922      8923
      8921      8920      8922      8924      8921      8920      8922      8972
      8922      8972      8975      8976      8922      8972      8975      8977
      8922      8972      8975      8978      8923      8922      8972      8973
      8923      8922      8972      8974      8923      8922      8972      8975
      8924      8922      8972      8973      8924      8922      8972      8974
      8924      8922      8972      8975      8925      8928      8931      8932
      8925      8928      8931      8933      8925      8928      8931      8934
      8926      8925      8928      8929      8926      8925      8928      8930
      8926      8925      8928      8931      8927      8925      8928      8929
      8927      8925      8928      8930      8927      8925      8928      8931
      8928      8931      8934      8935      8928      8931      8934      8936
      8928      8931      8934      8937      8929      8928      8931      8932
      8929      8928      8931      8933      8929      8928      8931      8934
      8930      8928      8931      8932      8930      8928      8931      8933
      8930      8928      8931      8934      8931      8934      8937      8938
      8931      8934      8937      8939      8931      8934      8937      8940
      8932      8931      8934      8935      8932      8931      8934      8936
      8932      8931      8934      8937      8933      8931      8934      8935
      8933      8931      8934      8936      8933      8931      8934      8937
      8934      8937      8940      8941      8934      8937      8940      8942
      8934      8937      8940      8943      8935      8934      8937      8938
      8935      8934      8937      8939      8935      8934      8937      8940
      8936      8934      8937      8938      8936      8934      8937      8939
      8936      8934      8937      8940      8937      8940      8943      8944
      8937      8940      8943      8945      8938      8937      8940      8941
      8938      8937      8940      8942      8938      8937      8940      8943
      8939      8937      8940      8941      8939      8937      8940      8942
      8939      8937      8940      8943      8940      8943      8945      8946
      8940      8943      8945      8947      8941      8940      8943      8944
      8941      8940      8943      8945      8942      8940      8943      8944
      8942      8940      8943      8945      8943      8945      8947      8948
      8943      8945      8947      8949      8943      8945      8947      8950
      8944      8943      8945      8946      8944      8943      8945      8947
      8945      8947      8950      8951      8945      8947      8950      8952
      8945      8947      8950      8953      8946      8945      8947      8948
      8946      8945      8947      8949      8946      8945      8947      8950
      8947      8950      8953      8954      8947      8950      8953      8955
      8947      8950      8953      8956      8948      8947      8950      8951
      8948      8947      8950      8952      8948      8947      8950      8953
      8949      8947      8950      8951      8949      8947      8950      8952
      8949      8947      8950      8953      8950      8953      8956      8957
      8950      8953      8956      8958      8950      8953      8956      8959
      8951      8950      8953      8954      8951      8950      8953      8955
      8951      8950      8953      8956      8952      8950      8953      8954
      8952      8950      8953      8955      8952      8950      8953      8956
      8953      8956      8959      8960      8953      8956      8959      8961
      8953      8956      8959      8962      8954      8953      8956      8957
      8954      8953      8956      8958      8954      8953      8956      8959
      8955      8953      8956      8957      8955      8953      8956      8958
      8955      8953      8956      8959      8956      8959      8962      8963
      8956      8959      8962      8964      8956      8959      8962      8965
      8957      8956      8959      8960      8957      8956      8959      8961
      8957      8956      8959      8962      8958      8956      8959      8960
      8958      8956      8959      8961      8958      8956      8959      8962
      8959      8962      8965      8966      8959      8962      8965      8967
      8959      8962      8965      8968      8960      8959      8962      8963
      8960      8959      8962      8964      8960      8959      8962      8965
      8961      8959      8962      8963      8961      8959      8962      8964
      8961      8959      8962      8965      8962      8965      8968      8969
      8962      8965      8968      8970      8962      8965      8968      8971
      8963      8962      8965      8966      8963      8962      8965      8967
      8963      8962      8965      8968      8964      8962      8965      8966
      8964      8962      8965      8967      8964      8962      8965      8968
      8966      8965      8968      8969      8966      8965      8968      8970
      8966      8965      8968      8971      8967      8965      8968      8969
      8967      8965      8968      8970      8967      8965      8968      8971
      8972      8975      8978      8979      8972      8975      8978      8980
      8972      8975      8978      8981      8973      8972      8975      8976
      8973      8972      8975      8977      8973      8972      8975      8978
      8974      8972      8975      8976      8974      8972      8975      8977
      8974      8972      8975      8978      8975      8978      8981      8982
      8975      8978      8981      8983      8975      8978      8981      8984
      8976      8975      8978      8979      8976      8975      8978      8980
      8976      8975      8978      8981      8977      8975      8978      8979
      8977      8975      8978      8980      8977      8975      8978      8981
      8978      8981      8984      8985      8978      8981      8984      8986
      8978      8981      8984      8987      8979      8978      8981      8982
      8979      8978      8981      8983      8979      8978      8981      8984
      8980      8978      8981      8982      8980      8978      8981      8983
      8980      8978      8981      8984      8981      8984      8987      8988
      8981      8984      8987      8989      8981      8984      8987      8990
      8982      8981      8984      8985      8982      8981      8984      8986
      8982      8981      8984      8987      8983      8981      8984      8985
      8983      8981      8984      8986      8983      8981      8984      8987
      8984      8987      8990      8991      8984      8987      8990      8992
      8984      8987      8990      8993      8985      8984      8987      8988
      8985      8984      8987      8989      8985      8984      8987      8990
      8986      8984      8987      8988      8986      8984      8987      8989
      8986      8984      8987      8990      8987      8990      8993      8994
      8987      8990      8993      8995      8987      8990      8993      8996
      8988      8987      8990      8991      8988      8987      8990      8992
      8988      8987      8990      8993      8989      8987      8990      8991
      8989      8987      8990      8992      8989      8987      8990      8993
      8990      8993      8996      8997      8990      8993      8996      8998
      8990      8993      8996      8999      8991      8990      8993      8994
      8991      8990      8993      8995      8991      8990      8993      8996
      8992      8990      8993      8994      8992      8990      8993      8995
      8992      8990      8993      8996      8993      8996      8999      9000
      8993      8996      8999      9001      8993      8996      8999      9002
      8994      8993      8996      8997      8994      8993      8996      8998
      8994      8993      8996      8999      8995      8993      8996      8997
      8995      8993      8996      8998      8995      8993      8996      8999
      8996      8999      9002      9003      8996      8999      9002      9004
      8996      8999      9002      9005      8997      8996      8999      9000
      8997      8996      8999      9001      8997      8996      8999      9002
      8998      8996      8999      9000      8998      8996      8999      9001
      8998      8996      8999      9002      8999      9002      9005      9006
      8999      9002      9005      9007      8999      9002      9005      9008
      9000      8999      9002      9003      9000      8999      9002      9004
      9000      8999      9002      9005      9001      8999      9002      9003
      9001      8999      9002      9004      9001      8999      9002      9005
      9002      9005      9008      9009      9002      9005      9008      9010
      9002      9005      9008      9011      9003      9002      9005      9006
      9003      9002      9005      9007      9003      9002      9005      9008
      9004      9002      9005      9006      9004      9002      9005      9007
      9004      9002      9005      9008      9005      9008      9011      9012
      9005      9008      9011      9013      9005      9008      9011      9014
      9006      9005      9008      9009      9006      9005      9008      9010
      9006      9005      9008      9011      9007      9005      9008      9009
      9007      9005      9008      9010      9007      9005      9008      9011
      9009      9008      9011      9012      9009      9008      9011      9013
      9009      9008      9011      9014      9010      9008      9011      9012
      9010      9008      9011      9013      9010      9008      9011      9014
      9015      9019      9021      9022      9015      9019      9021      9023
      9015      9019      9024      9025      9015      9019      9024      9026
      9015      9019      9024      9030      9016      9015      9019      9020
      9016      9015      9019      9021      9016      9015      9019      9024
      9017      9015      9019      9020      9017      9015      9019      9021
      9017      9015      9019      9024      9018      9015      9019      9020
      9018      9015      9019      9021      9018      9015      9019      9024
      9019      9024      9030      9027      9020      9019      9021      9022
      9020      9019      9021      9023      9020      9019      9024      9025
      9020      9019      9024      9026      9020      9019      9024      9030
      9021      9019      9024      9025      9021      9019      9024      9026
      9021      9019      9024      9030      9022      9021      9019      9024
      9023      9021      9019      9024      9024      9030      9027      9028
      9024      9030      9027      9029      9024      9030      9027      9031
      9025      9024      9030      9027      9026      9024      9030      9027
      9027      9031      9032      9033      9027      9031      9032      9034
      9027      9031      9032      9035      9028      9027      9031      9032
      9029      9027      9031      9032      9030      9027      9031      9032
      9031      9032      9035      9036      9031      9032      9035      9037
      9031      9032      9035      9043      9032      9035      9037      9038
      9032      9035      9043      9044      9032      9035      9043      9045
      9032      9035      9043      9046      9033      9032      9035      9036
      9033      9032      9035      9037      9033      9032      9035      9043
      9034      9032      9035      9036      9034      9032      9035      9037
      9034      9032      9035      9043      9035      9037      9038      9039
      9035      9037      9038      9040      9035      9043      9046      9047
      9036      9035      9037      9038      9036      9035      9043      9044
      9036      9035      9043      9045      9036      9035      9043      9046
      9037      9035      9043      9044      9037      9035      9043      9045
      9037      9035      9043      9046      9037      9038      9040      9041
      9037      9038      9040      9042      9037      9038      9040      9052
      9038      9037      9035      9043      9038      9040      9052      9053
      9038      9040      9052      9054      9038      9040      9052      9055
      9039      9038      9040      9041      9039      9038      9040      9042
      9039      9038      9040      9052      9040      9052      9055      9056
      9040      9052      9055      9057      9040      9052      9055      9058
      9041      9040      9052      9053      9041      9040      9052      9054
      9041      9040      9052      9055      9042      9040      9052      9053
      9042      9040      9052      9054      9042      9040      9052      9055
      9043      9046      9047      9048      9043      9046      9047      9049
      9044      9043      9046      9047      9045      9043      9046      9047
      9046      9047      9049      9050      9046      9047      9049      9051
      9046      9047      9049      9099      9047      9049      9099      9100
      9047      9049      9099      9101      9047      9049      9099      9102
      9048      9047      9049      9050      9048      9047      9049      9051
      9048      9047      9049      9099      9049      9099      9102      9103
      9049      9099      9102      9104      9049      9099      9102      9105
      9050      9049      9099      9100      9050      9049      9099      9101
      9050      9049      9099      9102      9051      9049      9099      9100
      9051      9049      9099      9101      9051      9049      9099      9102
      9052      9055      9058      9059      9052      9055      9058      9060
      9052      9055      9058      9061      9053      9052      9055      9056
      9053      9052      9055      9057      9053      9052      9055      9058
      9054      9052      9055      9056      9054      9052      9055      9057
      9054      9052      9055      9058      9055      9058      9061      9062
      9055      9058      9061      9063      9055      9058      9061      9064
      9056      9055      9058      9059      9056      9055      9058      9060
      9056      9055      9058      9061      9057      9055      9058      9059
      9057      9055      9058      9060      9057      9055      9058      9061
      9058      9061      9064      9065      9058      9061      9064      9066
      9058      9061      9064      9067      9059      9058      9061      9062
      9059      9058      9061      9063      9059      9058      9061      9064
      9060      9058      9061      9062      9060      9058      9061      9063
      9060      9058      9061      9064      9061      9064      9067      9068
      9061      9064      9067      9069      9061      9064      9067      9070
      9062      9061      9064      9065      9062      9061      9064      9066
      9062      9061      9064      9067      9063      9061      9064      9065
      9063      9061      9064      9066      9063      9061      9064      9067
      9064      9067      9070      9071      9064      9067      9070      9072
      9065      9064      9067      9068      9065      9064      9067      9069
      9065      9064      9067      9070      9066      9064      9067      9068
      9066      9064      9067      9069      9066      9064      9067      9070
      9067      9070      9072      9073      9067      9070      9072      9074
      9068      9067      9070      9071      9068      9067      9070      9072
      9069      9067      9070      9071      9069      9067      9070      9072
      9070      9072      9074      9075      9070      9072      9074      9076
      9070      9072      9074      9077      9071      9070      9072      9073
      9071      9070      9072      9074      9072      9074      9077      9078
      9072      9074      9077      9079      9072      9074      9077      9080
      9073      9072      9074      9075      9073      9072      9074      9076
      9073      9072      9074      9077      9074      9077      9080      9081
      9074      9077      9080      9082      9074      9077      9080      9083
      9075      9074      9077      9078      9075      9074      9077      9079
      9075      9074      9077      9080      9076      9074      9077      9078
      9076      9074      9077      9079      9076      9074      9077      9080
      9077      9080      9083      9084      9077      9080      9083      9085
      9077      9080      9083      9086      9078      9077      9080      9081
      9078      9077      9080      9082      9078      9077      9080      9083
      9079      9077      9080      9081      9079      9077      9080      9082
      9079      9077      9080      9083      9080      9083      9086      9087
      9080      9083      9086      9088      9080      9083      9086      9089
      9081      9080      9083      9084      9081      9080      9083      9085
      9081      9080      9083      9086      9082      9080      9083      9084
      9082      9080      9083      9085      9082      9080      9083      9086
      9083      9086      9089      9090      9083      9086      9089      9091
      9083      9086      9089      9092      9084      9083      9086      9087
      9084      9083      9086      9088      9084      9083      9086      9089
      9085      9083      9086      9087      9085      9083      9086      9088
      9085      9083      9086      9089      9086      9089      9092      9093
      9086      9089      9092      9094      9086      9089      9092      9095
      9087      9086      9089      9090      9087      9086      9089      9091
      9087      9086      9089      9092      9088      9086      9089      9090
      9088      9086      9089      9091      9088      9086      9089      9092
      9089      9092      9095      9096      9089      9092      9095      9097
      9089      9092      9095      9098      9090      9089      9092      9093
      9090      9089      9092      9094      9090      9089      9092      9095
      9091      9089      9092      9093      9091      9089      9092      9094
      9091      9089      9092      9095      9093      9092      9095      9096
      9093      9092      9095      9097      9093      9092      9095      9098
      9094      9092      9095      9096      9094      9092      9095      9097
      9094      9092      9095      9098      9099      9102      9105      9106
      9099      9102      9105      9107      9099      9102      9105      9108
      9100      9099      9102      9103      9100      9099      9102      9104
      9100      9099      9102      9105      9101      9099      9102      9103
      9101      9099      9102      9104      9101      9099      9102      9105
      9102      9105      9108      9109      9102      9105      9108      9110
      9102      9105      9108      9111      9103      9102      9105      9106
      9103      9102      9105      9107      9103      9102      9105      9108
      9104      9102      9105      9106      9104      9102      9105      9107
      9104      9102      9105      9108      9105      9108      9111      9112
      9105      9108      9111      9113      9105      9108      9111      9114
      9106      9105      9108      9109      9106      9105      9108      9110
      9106      9105      9108      9111      9107      9105      9108      9109
      9107      9105      9108      9110      9107      9105      9108      9111
      9108      9111      9114      9115      9108      9111      9114      9116
      9108      9111      9114      9117      9109      9108      9111      9112
      9109      9108      9111      9113      9109      9108      9111      9114
      9110      9108      9111      9112      9110      9108      9111      9113
      9110      9108      9111      9114      9111      9114      9117      9118
      9111      9114      9117      9119      9111      9114      9117      9120
      9112      9111      9114      9115      9112      9111      9114      9116
      9112      9111      9114      9117      9113      9111      9114      9115
      9113      9111      9114      9116      9113      9111      9114      9117
      9114      9117      9120      9121      9114      9117      9120      9122
      9114      9117      9120      9123      9115      9114      9117      9118
      9115      9114      9117      9119      9115      9114      9117      9120
      9116      9114      9117      9118      9116      9114      9117      9119
      9116      9114      9117      9120      9117      9120      9123      9124
      9117      9120      9123      9125      9117      9120      9123      9126
      9118      9117      9120      9121      9118      9117      9120      9122
      9118      9117      9120      9123      9119      9117      9120      9121
      9119      9117      9120      9122      9119      9117      9120      9123
      9120      9123      9126      9127      9120      9123      9126      9128
      9120      9123      9126      9129      9121      9120      9123      9124
      9121      9120      9123      9125      9121      9120      9123      9126
      9122      9120      9123      9124      9122      9120      9123      9125
      9122      9120      9123      9126      9123      9126      9129      9130
      9123      9126      9129      9131      9123      9126      9129      9132
      9124      9123      9126      9127      9124      9123      9126      9128
      9124      9123      9126      9129      9125      9123      9126      9127
      9125      9123      9126      9128      9125      9123      9126      9129
      9126      9129      9132      9133      9126      9129      9132      9134
      9126      9129      9132      9135      9127      9126      9129      9130
      9127      9126      9129      9131      9127      9126      9129      9132
      9128      9126      9129      9130      9128      9126      9129      9131
      9128      9126      9129      9132      9129      9132      9135      9136
      9129      9132      9135      9137      9129      9132      9135      9138
      9130      9129      9132      9133      9130      9129      9132      9134
      9130      9129      9132      9135      9131      9129      9132      9133
      9131      9129      9132      9134      9131      9129      9132      9135
      9132      9135      9138      9139      9132      9135      9138      9140
      9132      9135      9138      9141      9133      9132      9135      9136
      9133      9132      9135      9137      9133      9132      9135      9138
      9134      9132      9135      9136      9134      9132      9135      9137
      9134      9132      9135      9138      9136      9135      9138      9139
      9136      9135      9138      9140      9136      9135      9138      9141
      9137      9135      9138      9139      9137      9135      9138      9140
      9137      9135      9138      9141      9142      9143      9158      9159
      9142      9143      9158      9160      9142      9143      9158      9164
      9143      9142      9146      9147      9143      9142      9146      9148
      9143      9142      9146      9149      9143      9142      9150      9151
      9143      9142      9150      9152      9143      9142      9150      9153
      9143      9142      9154      9155      9143      9142      9154      9156
      9143      9142      9154      9157      9143      9158      9164      9161
      9144      9143      9142      9146      9144      9143      9142      9150
      9144      9143      9142      9154      9144      9143      9158      9159
      9144      9143      9158      9160      9144      9143      9158      9164
      9145      9143      9142      9146      9145      9143      9142      9150
      9145      9143      9142      9154      9145      9143      9158      9159
      9145      9143      9158      9160      9145      9143      9158      9164
      9146      9142      9143      9158      9146      9142      9150      9151
      9146      9142      9150      9152      9146      9142      9150      9153
      9146      9142      9154      9155      9146      9142      9154      9156
      9146      9142      9154      9157      9147      9146      9142      9150
      9147      9146      9142      9154      9148      9146      9142      9150
      9148      9146      9142      9154      9149      9146      9142      9150
      9149      9146      9142      9154      9150      9142      9143      9158
      9150      9142      9154      9155      9150      9142      9154      9156
      9150      9142      9154      9157      9151      9150      9142      9154
      9152      9150      9142      9154      9153      9150      9142      9154
      9154      9142      9143      9158      9158      9164      9161      9162
      9158      9164      9161      9163      9158      9164      9161      9165
      9159      9158      9164      9161      9160      9158      9164      9161
      9161      9165      9166      9167      9161      9165      9166      9168
      9161      9165      9166      9169      9162      9161      9165      9166
      9163      9161      9165      9166      9164      9161      9165      9166
      9165      9166      9169      9170      9165      9166      9169      9171
      9165      9166      9169      9177      9166      9169      9171      9172
      9166      9169      9177      9178      9166      9169      9177      9179
      9166      9169      9177      9180      9167      9166      9169      9170
      9167      9166      9169      9171      9167      9166      9169      9177
      9168      9166      9169      9170      9168      9166      9169      9171
      9168      9166      9169      9177      9169      9171      9172      9173
      9169      9171      9172      9174      9169      9177      9180      9181
      9170      9169      9171      9172      9170      9169      9177      9178
      9170      9169      9177      9179      9170      9169      9177      9180
      9171      9169      9177      9178      9171      9169      9177      9179
      9171      9169      9177      9180      9171      9172      9174      9175
      9171      9172      9174      9176      9171      9172      9174      9186
      9172      9171      9169      9177      9172      9174      9186      9187
      9172      9174      9186      9188      9172      9174      9186      9189
      9173      9172      9174      9175      9173      9172      9174      9176
      9173      9172      9174      9186      9174      9186      9189      9190
      9174      9186      9189      9191      9174      9186      9189      9192
      9175      9174      9186      9187      9175      9174      9186      9188
      9175      9174      9186      9189      9176      9174      9186      9187
      9176      9174      9186      9188      9176      9174      9186      9189
      9177      9180      9181      9182      9177      9180      9181      9183
      9178      9177      9180      9181      9179      9177      9180      9181
      9180      9181      9183      9184      9180      9181      9183      9185
      9180      9181      9183      9233      9181      9183      9233      9234
      9181      9183      9233      9235      9181      9183      9233      9236
      9182      9181      9183      9184      9182      9181      9183      9185
      9182      9181      9183      9233      9183      9233      9236      9237
      9183      9233      9236      9238      9183      9233      9236      9239
      9184      9183      9233      9234      9184      9183      9233      9235
      9184      9183      9233      9236      9185      9183      9233      9234
      9185      9183      9233      9235      9185      9183      9233      9236
      9186      9189      9192      9193      9186      9189      9192      9194
      9186      9189      9192      9195      9187      9186      9189      9190
      9187      9186      9189      9191      9187      9186      9189      9192
      9188      9186      9189      9190      9188      9186      9189      9191
      9188      9186      9189      9192      9189      9192      9195      9196
      9189      9192      9195      9197      9189      9192      9195      9198
      9190      9189      9192      9193      9190      9189      9192      9194
      9190      9189      9192      9195      9191      9189      9192      9193
      9191      9189      9192      9194      9191      9189      9192      9195
      9192      9195      9198      9199      9192      9195      9198      9200
      9192      9195      9198      9201      9193      9192      9195      9196
      9193      9192      9195      9197      9193      9192      9195      9198
      9194      9192      9195      9196      9194      9192      9195      9197
      9194      9192      9195      9198      9195      9198      9201      9202
      9195      9198      9201      9203      9195      9198      9201      9204
      9196      9195      9198      9199      9196      9195      9198      9200
      9196      9195      9198      9201      9197      9195      9198      9199
      9197      9195      9198      9200      9197      9195      9198      9201
      9198      9201      9204      9205      9198      9201      9204      9206
      9199      9198      9201      9202      9199      9198      9201      9203
      9199      9198      9201      9204      9200      9198      9201      9202
      9200      9198      9201      9203      9200      9198      9201      9204
      9201      9204      9206      9207      9201      9204      9206      9208
      9202      9201      9204      9205      9202      9201      9204      9206
      9203      9201      9204      9205      9203      9201      9204      9206
      9204      9206      9208      9209      9204      9206      9208      9210
      9204      9206      9208      9211      9205      9204      9206      9207
      9205      9204      9206      9208      9206      9208      9211      9212
      9206      9208      9211      9213      9206      9208      9211      9214
      9207      9206      9208      9209      9207      9206      9208      9210
      9207      9206      9208      9211      9208      9211      9214      9215
      9208      9211      9214      9216      9208      9211      9214      9217
      9209      9208      9211      9212      9209      9208      9211      9213
      9209      9208      9211      9214      9210      9208      9211      9212
      9210      9208      9211      9213      9210      9208      9211      9214
      9211      9214      9217      9218      9211      9214      9217      9219
      9211      9214      9217      9220      9212      9211      9214      9215
      9212      9211      9214      9216      9212      9211      9214      9217
      9213      9211      9214      9215      9213      9211      9214      9216
      9213      9211      9214      9217      9214      9217      9220      9221
      9214      9217      9220      9222      9214      9217      9220      9223
      9215      9214      9217      9218      9215      9214      9217      9219
      9215      9214      9217      9220      9216      9214      9217      9218
      9216      9214      9217      9219      9216      9214      9217      9220
      9217      9220      9223      9224      9217      9220      9223      9225
      9217      9220      9223      9226      9218      9217      9220      9221
      9218      9217      9220      9222      9218      9217      9220      9223
      9219      9217      9220      9221      9219      9217      9220      9222
      9219      9217      9220      9223      9220      9223      9226      9227
      9220      9223      9226      9228      9220      9223      9226      9229
      9221      9220      9223      9224      9221      9220      9223      9225
      9221      9220      9223      9226      9222      9220      9223      9224
      9222      9220      9223      9225      9222      9220      9223      9226
      9223      9226      9229      9230      9223      9226      9229      9231
      9223      9226      9229      9232      9224      9223      9226      9227
      9224      9223      9226      9228      9224      9223      9226      9229
      9225      9223      9226      9227      9225      9223      9226      9228
      9225      9223      9226      9229      9227      9226      9229      9230
      9227      9226      9229      9231      9227      9226      9229      9232
      9228      9226      9229      9230      9228      9226      9229      9231
      9228      9226      9229      9232      9233      9236      9239      9240
      9233      9236      9239      9241      9233      9236      9239      9242
      9234      9233      9236      9237      9234      9233      9236      9238
      9234      9233      9236      9239      9235      9233      9236      9237
      9235      9233      9236      9238      9235      9233      9236      9239
      9236      9239      9242      9243      9236      9239      9242      9244
      9236      9239      9242      9245      9237      9236      9239      9240
      9237      9236      9239      9241      9237      9236      9239      9242
      9238      9236      9239      9240      9238      9236      9239      9241
      9238      9236      9239      9242      9239      9242      9245      9246
      9239      9242      9245      9247      9239      9242      9245      9248
      9240      9239      9242      9243      9240      9239      9242      9244
      9240      9239      9242      9245      9241      9239      9242      9243
      9241      9239      9242      9244      9241      9239      9242      9245
      9242      9245      9248      9249      9242      9245      9248      9250
      9242      9245      9248      9251      9243      9242      9245      9246
      9243      9242      9245      9247      9243      9242      9245      9248
      9244      9242      9245      9246      9244      9242      9245      9247
      9244      9242      9245      9248      9245      9248      9251      9252
      9245      9248      9251      9253      9245      9248      9251      9254
      9246      9245      9248      9249      9246      9245      9248      9250
      9246      9245      9248      9251      9247      9245      9248      9249
      9247      9245      9248      9250      9247      9245      9248      9251
      9248      9251      9254      9255      9248      9251      9254      9256
      9248      9251      9254      9257      9249      9248      9251      9252
      9249      9248      9251      9253      9249      9248      9251      9254
      9250      9248      9251      9252      9250      9248      9251      9253
      9250      9248      9251      9254      9251      9254      9257      9258
      9251      9254      9257      9259      9251      9254      9257      9260
      9252      9251      9254      9255      9252      9251      9254      9256
      9252      9251      9254      9257      9253      9251      9254      9255
      9253      9251      9254      9256      9253      9251      9254      9257
      9254      9257      9260      9261      9254      9257      9260      9262
      9254      9257      9260      9263      9255      9254      9257      9258
      9255      9254      9257      9259      9255      9254      9257      9260
      9256      9254      9257      9258      9256      9254      9257      9259
      9256      9254      9257      9260      9257      9260      9263      9264
      9257      9260      9263      9265      9257      9260      9263      9266
      9258      9257      9260      9261      9258      9257      9260      9262
      9258      9257      9260      9263      9259      9257      9260      9261
      9259      9257      9260      9262      9259      9257      9260      9263
      9260      9263      9266      9267      9260      9263      9266      9268
      9260      9263      9266      9269      9261      9260      9263      9264
      9261      9260      9263      9265      9261      9260      9263      9266
      9262      9260      9263      9264      9262      9260      9263      9265
      9262      9260      9263      9266      9263      9266      9269      9270
      9263      9266      9269      9271      9263      9266      9269      9272
      9264      9263      9266      9267      9264      9263      9266      9268
      9264      9263      9266      9269      9265      9263      9266      9267
      9265      9263      9266      9268      9265      9263      9266      9269
      9266      9269      9272      9273      9266      9269      9272      9274
      9266      9269      9272      9275      9267      9266      9269      9270
      9267      9266      9269      9271      9267      9266      9269      9272
      9268      9266      9269      9270      9268      9266      9269      9271
      9268      9266      9269      9272      9270      9269      9272      9273
      9270      9269      9272      9274      9270      9269      9272      9275
      9271      9269      9272      9273      9271      9269      9272      9274
      9271      9269      9272      9275      9276      9277      9292      9293
      9276      9277      9292      9294      9276      9277      9292      9298
      9277      9276      9280      9281      9277      9276      9280      9282
      9277      9276      9280      9283      9277      9276      9284      9285
      9277      9276      9284      9286      9277      9276      9284      9287
      9277      9276      9288      9289      9277      9276      9288      9290
      9277      9276      9288      9291      9277      9292      9298      9295
      9278      9277      9276      9280      9278      9277      9276      9284
      9278      9277      9276      9288      9278      9277      9292      9293
      9278      9277      9292      9294      9278      9277      9292      9298
      9279      9277      9276      9280      9279      9277      9276      9284
      9279      9277      9276      9288      9279      9277      9292      9293
      9279      9277      9292      9294      9279      9277      9292      9298
      9280      9276      9277      9292      9280      9276      9284      9285
      9280      9276      9284      9286      9280      9276      9284      9287
      9280      9276      9288      9289      9280      9276      9288      9290
      9280      9276      9288      9291      9281      9280      9276      9284
      9281      9280      9276      9288      9282      9280      9276      9284
      9282      9280      9276      9288      9283      9280      9276      9284
      9283      9280      9276      9288      9284      9276      9277      9292
      9284      9276      9288      9289      9284      9276      9288      9290
      9284      9276      9288      9291      9285      9284      9276      9288
      9286      9284      9276      9288      9287      9284      9276      9288
      9288      9276      9277      9292      9292      9298      9295      9296
      9292      9298      9295      9297      9292      9298      9295      9299
      9293      9292      9298      9295      9294      9292      9298      9295
      9295      9299      9300      9301      9295      9299      9300      9302
      9295      9299      9300      9303      9296      9295      9299      9300
      9297      9295      9299      9300      9298      9295      9299      9300
      9299      9300      9303      9304      9299      9300      9303      9305
      9299      9300      9303      9311      9300      9303      9305      9306
      9300      9303      9311      9312      9300      9303      9311      9313
      9300      9303      9311      9314      9301      9300      9303      9304
      9301      9300      9303      9305      9301      9300      9303      9311
      9302      9300      9303      9304      9302      9300      9303      9305
      9302      9300      9303      9311      9303      9305      9306      9307
      9303      9305      9306      9308      9303      9311      9314      9315
      9304      9303      9305      9306      9304      9303      9311      9312
      9304      9303      9311      9313      9304      9303      9311      9314
      9305      9303      9311      9312      9305      9303      9311      9313
      9305      9303      9311      9314      9305      9306      9308      9309
      9305      9306      9308      9310      9305      9306      9308      9320
      9306      9305      9303      9311      9306      9308      9320      9321
      9306      9308      9320      9322      9306      9308      9320      9323
      9307      9306      9308      9309      9307      9306      9308      9310
      9307      9306      9308      9320      9308      9320      9323      9324
      9308      9320      9323      9325      9308      9320      9323      9326
      9309      9308      9320      9321      9309      9308      9320      9322
      9309      9308      9320      9323      9310      9308      9320      9321
      9310      9308      9320      9322      9310      9308      9320      9323
      9311      9314      9315      9316      9311      9314      9315      9317
      9312      9311      9314      9315      9313      9311      9314      9315
      9314      9315      9317      9318      9314      9315      9317      9319
      9314      9315      9317      9367      9315      9317      9367      9368
      9315      9317      9367      9369      9315      9317      9367      9370
      9316      9315      9317      9318      9316      9315      9317      9319
      9316      9315      9317      9367      9317      9367      9370      9371
      9317      9367      9370      9372      9317      9367      9370      9373
      9318      9317      9367      9368      9318      9317      9367      9369
      9318      9317      9367      9370      9319      9317      9367      9368
      9319      9317      9367      9369      9319      9317      9367      9370
      9320      9323      9326      9327      9320      9323      9326      9328
      9320      9323      9326      9329      9321      9320      9323      9324
      9321      9320      9323      9325      9321      9320      9323      9326
      9322      9320      9323      9324      9322      9320      9323      9325
      9322      9320      9323      9326      9323      9326      9329      9330
      9323      9326      9329      9331      9323      9326      9329      9332
      9324      9323      9326      9327      9324      9323      9326      9328
      9324      9323      9326      9329      9325      9323      9326      9327
      9325      9323      9326      9328      9325      9323      9326      9329
      9326      9329      9332      9333      9326      9329      9332      9334
      9326      9329      9332      9335      9327      9326      9329      9330
      9327      9326      9329      9331      9327      9326      9329      9332
      9328      9326      9329      9330      9328      9326      9329      9331
      9328      9326      9329      9332      9329      9332      9335      9336
      9329      9332      9335      9337      9329      9332      9335      9338
      9330      9329      9332      9333      9330      9329      9332      9334
      9330      9329      9332      9335      9331      9329      9332      9333
      9331      9329      9332      9334      9331      9329      9332      9335
      9332      9335      9338      9339      9332      9335      9338      9340
      9333      9332      9335      9336      9333      9332      9335      9337
      9333      9332      9335      9338      9334      9332      9335      9336
      9334      9332      9335      9337      9334      9332      9335      9338
      9335      9338      9340      9341      9335      9338      9340      9342
      9336      9335      9338      9339      9336      9335      9338      9340
      9337      9335      9338      9339      9337      9335      9338      9340
      9338      9340      9342      9343      9338      9340      9342      9344
      9338      9340      9342      9345      9339      9338      9340      9341
      9339      9338      9340      9342      9340      9342      9345      9346
      9340      9342      9345      9347      9340      9342      9345      9348
      9341      9340      9342      9343      9341      9340      9342      9344
      9341      9340      9342      9345      9342      9345      9348      9349
      9342      9345      9348      9350      9342      9345      9348      9351
      9343      9342      9345      9346      9343      9342      9345      9347
      9343      9342      9345      9348      9344      9342      9345      9346
      9344      9342      9345      9347      9344      9342      9345      9348
      9345      9348      9351      9352      9345      9348      9351      9353
      9345      9348      9351      9354      9346      9345      9348      9349
      9346      9345      9348      9350      9346      9345      9348      9351
      9347      9345      9348      9349      9347      9345      9348      9350
      9347      9345      9348      9351      9348      9351      9354      9355
      9348      9351      9354      9356      9348      9351      9354      9357
      9349      9348      9351      9352      9349      9348      9351      9353
      9349      9348      9351      9354      9350      9348      9351      9352
      9350      9348      9351      9353      9350      9348      9351      9354
      9351      9354      9357      9358      9351      9354      9357      9359
      9351      9354      9357      9360      9352      9351      9354      9355
      9352      9351      9354      9356      9352      9351      9354      9357
      9353      9351      9354      9355      9353      9351      9354      9356
      9353      9351      9354      9357      9354      9357      9360      9361
      9354      9357      9360      9362      9354      9357      9360      9363
      9355      9354      9357      9358      9355      9354      9357      9359
      9355      9354      9357      9360      9356      9354      9357      9358
      9356      9354      9357      9359      9356      9354      9357      9360
      9357      9360      9363      9364      9357      9360      9363      9365
      9357      9360      9363      9366      9358      9357      9360      9361
      9358      9357      9360      9362      9358      9357      9360      9363
      9359      9357      9360      9361      9359      9357      9360      9362
      9359      9357      9360      9363      9361      9360      9363      9364
      9361      9360      9363      9365      9361      9360      9363      9366
      9362      9360      9363      9364      9362      9360      9363      9365
      9362      9360      9363      9366      9367      9370      9373      9374
      9367      9370      9373      9375      9367      9370      9373      9376
      9368      9367      9370      9371      9368      9367      9370      9372
      9368      9367      9370      9373      9369      9367      9370      9371
      9369      9367      9370      9372      9369      9367      9370      9373
      9370      9373      9376      9377      9370      9373      9376      9378
      9370      9373      9376      9379      9371      9370      9373      9374
      9371      9370      9373      9375      9371      9370      9373      9376
      9372      9370      9373      9374      9372      9370      9373      9375
      9372      9370      9373      9376      9373      9376      9379      9380
      9373      9376      9379      9381      9373      9376      9379      9382
      9374      9373      9376      9377      9374      9373      9376      9378
      9374      9373      9376      9379      9375      9373      9376      9377
      9375      9373      9376      9378      9375      9373      9376      9379
      9376      9379      9382      9383      9376      9379      9382      9384
      9376      9379      9382      9385      9377      9376      9379      9380
      9377      9376      9379      9381      9377      9376      9379      9382
      9378      9376      9379      9380      9378      9376      9379      9381
      9378      9376      9379      9382      9379      9382      9385      9386
      9379      9382      9385      9387      9379      9382      9385      9388
      9380      9379      9382      9383      9380      9379      9382      9384
      9380      9379      9382      9385      9381      9379      9382      9383
      9381      9379      9382      9384      9381      9379      9382      9385
      9382      9385      9388      9389      9382      9385      9388      9390
      9382      9385      9388      9391      9383      9382      9385      9386
      9383      9382      9385      9387      9383      9382      9385      9388
      9384      9382      9385      9386      9384      9382      9385      9387
      9384      9382      9385      9388      9385      9388      9391      9392
      9385      9388      9391      9393      9385      9388      9391      9394
      9386      9385      9388      9389      9386      9385      9388      9390
      9386      9385      9388      9391      9387      9385      9388      9389
      9387      9385      9388      9390      9387      9385      9388      9391
      9388      9391      9394      9395      9388      9391      9394      9396
      9388      9391      9394      9397      9389      9388      9391      9392
      9389      9388      9391      9393      9389      9388      9391      9394
      9390      9388      9391      9392      9390      9388      9391      9393
      9390      9388      9391      9394      9391      9394      9397      9398
      9391      9394      9397      9399      9391      9394      9397      9400
      9392      9391      9394      9395      9392      9391      9394      9396
      9392      9391      9394      9397      9393      9391      9394      9395
      9393      9391      9394      9396      9393      9391      9394      9397
      9394      9397      9400      9401      9394      9397      9400      9402
      9394      9397      9400      9403      9395      9394      9397      9398
      9395      9394      9397      9399      9395      9394      9397      9400
      9396      9394      9397      9398      9396      9394      9397      9399
      9396      9394      9397      9400      9397      9400      9403      9404
      9397      9400      9403      9405      9397      9400      9403      9406
      9398      9397      9400      9401      9398      9397      9400      9402
      9398      9397      9400      9403      9399      9397      9400      9401
      9399      9397      9400      9402      9399      9397      9400      9403
      9400      9403      9406      9407      9400      9403      9406      9408
      9400      9403      9406      9409      9401      9400      9403      9404
      9401      9400      9403      9405      9401      9400      9403      9406
      9402      9400      9403      9404      9402      9400      9403      9405
      9402      9400      9403      9406      9404      9403      9406      9407
      9404      9403      9406      9408      9404      9403      9406      9409
      9405      9403      9406      9407      9405      9403      9406      9408
      9405      9403      9406      9409      9410      9411      9426      9427
      9410      9411      9426      9428      9410      9411      9426      9432
      9411      9410      9414      9415      9411      9410      9414      9416
      9411      9410      9414      9417      9411      9410      9418      9419
      9411      9410      9418      9420      9411      9410      9418      9421
      9411      9410      9422      9423      9411      9410      9422      9424
      9411      9410      9422      9425      9411      9426      9432      9429
      9412      9411      9410      9414      9412      9411      9410      9418
      9412      9411      9410      9422      9412      9411      9426      9427
      9412      9411      9426      9428      9412      9411      9426      9432
      9413      9411      9410      9414      9413      9411      9410      9418
      9413      9411      9410      9422      9413      9411      9426      9427
      9413      9411      9426      9428      9413      9411      9426      9432
      9414      9410      9411      9426      9414      9410      9418      9419
      9414      9410      9418      9420      9414      9410      9418      9421
      9414      9410      9422      9423      9414      9410      9422      9424
      9414      9410      9422      9425      9415      9414      9410      9418
      9415      9414      9410      9422      9416      9414      9410      9418
      9416      9414      9410      9422      9417      9414      9410      9418
      9417      9414      9410      9422      9418      9410      9411      9426
      9418      9410      9422      9423      9418      9410      9422      9424
      9418      9410      9422      9425      9419      9418      9410      9422
      9420      9418      9410      9422      9421      9418      9410      9422
      9422      9410      9411      9426      9426      9432      9429      9430
      9426      9432      9429      9431      9426      9432      9429      9433
      9427      9426      9432      9429      9428      9426      9432      9429
      9429      9433      9434      9435      9429      9433      9434      9436
      9429      9433      9434      9437      9430      9429      9433      9434
      9431      9429      9433      9434      9432      9429      9433      9434
      9433      9434      9437      9438      9433      9434      9437      9439
      9433      9434      9437      9445      9434      9437      9439      9440
      9434      9437      9445      9446      9434      9437      9445      9447
      9434      9437      9445      9448      9435      9434      9437      9438
      9435      9434      9437      9439      9435      9434      9437      9445
      9436      9434      9437      9438      9436      9434      9437      9439
      9436      9434      9437      9445      9437      9439      9440      9441
      9437      9439      9440      9442      9437      9445      9448      9449
      9438      9437      9439      9440      9438      9437      9445      9446
      9438      9437      9445      9447      9438      9437      9445      9448
      9439      9437      9445      9446      9439      9437      9445      9447
      9439      9437      9445      9448      9439      9440      9442      9443
      9439      9440      9442      9444      9439      9440      9442      9454
      9440      9439      9437      9445      9440      9442      9454      9455
      9440      9442      9454      9456      9440      9442      9454      9457
      9441      9440      9442      9443      9441      9440      9442      9444
      9441      9440      9442      9454      9442      9454      9457      9458
      9442      9454      9457      9459      9442      9454      9457      9460
      9443      9442      9454      9455      9443      9442      9454      9456
      9443      9442      9454      9457      9444      9442      9454      9455
      9444      9442      9454      9456      9444      9442      9454      9457
      9445      9448      9449      9450      9445      9448      9449      9451
      9446      9445      9448      9449      9447      9445      9448      9449
      9448      9449      9451      9452      9448      9449      9451      9453
      9448      9449      9451      9501      9449      9451      9501      9502
      9449      9451      9501      9503      9449      9451      9501      9504
      9450      9449      9451      9452      9450      9449      9451      9453
      9450      9449      9451      9501      9451      9501      9504      9505
      9451      9501      9504      9506      9451      9501      9504      9507
      9452      9451      9501      9502      9452      9451      9501      9503
      9452      9451      9501      9504      9453      9451      9501      9502
      9453      9451      9501      9503      9453      9451      9501      9504
      9454      9457      9460      9461      9454      9457      9460      9462
      9454      9457      9460      9463      9455      9454      9457      9458
      9455      9454      9457      9459      9455      9454      9457      9460
      9456      9454      9457      9458      9456      9454      9457      9459
      9456      9454      9457      9460      9457      9460      9463      9464
      9457      9460      9463      9465      9457      9460      9463      9466
      9458      9457      9460      9461      9458      9457      9460      9462
      9458      9457      9460      9463      9459      9457      9460      9461
      9459      9457      9460      9462      9459      9457      9460      9463
      9460      9463      9466      9467      9460      9463      9466      9468
      9460      9463      9466      9469      9461      9460      9463      9464
      9461      9460      9463      9465      9461      9460      9463      9466
      9462      9460      9463      9464      9462      9460      9463      9465
      9462      9460      9463      9466      9463      9466      9469      9470
      9463      9466      9469      9471      9463      9466      9469      9472
      9464      9463      9466      9467      9464      9463      9466      9468
      9464      9463      9466      9469      9465      9463      9466      9467
      9465      9463      9466      9468      9465      9463      9466      9469
      9466      9469      9472      9473      9466      9469      9472      9474
      9467      9466      9469      9470      9467      9466      9469      9471
      9467      9466      9469      9472      9468      9466      9469      9470
      9468      9466      9469      9471      9468      9466      9469      9472
      9469      9472      9474      9475      9469      9472      9474      9476
      9470      9469      9472      9473      9470      9469      9472      9474
      9471      9469      9472      9473      9471      9469      9472      9474
      9472      9474      9476      9477      9472      9474      9476      9478
      9472      9474      9476      9479      9473      9472      9474      9475
      9473      9472      9474      9476      9474      9476      9479      9480
      9474      9476      9479      9481      9474      9476      9479      9482
      9475      9474      9476      9477      9475      9474      9476      9478
      9475      9474      9476      9479      9476      9479      9482      9483
      9476      9479      9482      9484      9476      9479      9482      9485
      9477      9476      9479      9480      9477      9476      9479      9481
      9477      9476      9479      9482      9478      9476      9479      9480
      9478      9476      9479      9481      9478      9476      9479      9482
      9479      9482      9485      9486      9479      9482      9485      9487
      9479      9482      9485      9488      9480      9479      9482      9483
      9480      9479      9482      9484      9480      9479      9482      9485
      9481      9479      9482      9483      9481      9479      9482      9484
      9481      9479      9482      9485      9482      9485      9488      9489
      9482      9485      9488      9490      9482      9485      9488      9491
      9483      9482      9485      9486      9483      9482      9485      9487
      9483      9482      9485      9488      9484      9482      9485      9486
      9484      9482      9485      9487      9484      9482      9485      9488
      9485      9488      9491      9492      9485      9488      9491      9493
      9485      9488      9491      9494      9486      9485      9488      9489
      9486      9485      9488      9490      9486      9485      9488      9491
      9487      9485      9488      9489      9487      9485      9488      9490
      9487      9485      9488      9491      9488      9491      9494      9495
      9488      9491      9494      9496      9488      9491      9494      9497
      9489      9488      9491      9492      9489      9488      9491      9493
      9489      9488      9491      9494      9490      9488      9491      9492
      9490      9488      9491      9493      9490      9488      9491      9494
      9491      9494      9497      9498      9491      9494      9497      9499
      9491      9494      9497      9500      9492      9491      9494      9495
      9492      9491      9494      9496      9492      9491      9494      9497
      9493      9491      9494      9495      9493      9491      9494      9496
      9493      9491      9494      9497      9495      9494      9497      9498
      9495      9494      9497      9499      9495      9494      9497      9500
      9496      9494      9497      9498      9496      9494      9497      9499
      9496      9494      9497      9500      9501      9504      9507      9508
      9501      9504      9507      9509      9501      9504      9507      9510
      9502      9501      9504      9505      9502      9501      9504      9506
      9502      9501      9504      9507      9503      9501      9504      9505
      9503      9501      9504      9506      9503      9501      9504      9507
      9504      9507      9510      9511      9504      9507      9510      9512
      9504      9507      9510      9513      9505      9504      9507      9508
      9505      9504      9507      9509      9505      9504      9507      9510
      9506      9504      9507      9508      9506      9504      9507      9509
      9506      9504      9507      9510      9507      9510      9513      9514
      9507      9510      9513      9515      9507      9510      9513      9516
      9508      9507      9510      9511      9508      9507      9510      9512
      9508      9507      9510      9513      9509      9507      9510      9511
      9509      9507      9510      9512      9509      9507      9510      9513
      9510      9513      9516      9517      9510      9513      9516      9518
      9510      9513      9516      9519      9511      9510      9513      9514
      9511      9510      9513      9515      9511      9510      9513      9516
      9512      9510      9513      9514      9512      9510      9513      9515
      9512      9510      9513      9516      9513      9516      9519      9520
      9513      9516      9519      9521      9513      9516      9519      9522
      9514      9513      9516      9517      9514      9513      9516      9518
      9514      9513      9516      9519      9515      9513      9516      9517
      9515      9513      9516      9518      9515      9513      9516      9519
      9516      9519      9522      9523      9516      9519      9522      9524
      9516      9519      9522      9525      9517      9516      9519      9520
      9517      9516      9519      9521      9517      9516      9519      9522
      9518      9516      9519      9520      9518      9516      9519      9521
      9518      9516      9519      9522      9519      9522      9525      9526
      9519      9522      9525      9527      9519      9522      9525      9528
      9520      9519      9522      9523      9520      9519      9522      9524
      9520      9519      9522      9525      9521      9519      9522      9523
      9521      9519      9522      9524      9521      9519      9522      9525
      9522      9525      9528      9529      9522      9525      9528      9530
      9522      9525      9528      9531      9523      9522      9525      9526
      9523      9522      9525      9527      9523      9522      9525      9528
      9524      9522      9525      9526      9524      9522      9525      9527
      9524      9522      9525      9528      9525      9528      9531      9532
      9525      9528      9531      9533      9525      9528      9531      9534
      9526      9525      9528      9529      9526      9525      9528      9530
      9526      9525      9528      9531      9527      9525      9528      9529
      9527      9525      9528      9530      9527      9525      9528      9531
      9528      9531      9534      9535      9528      9531      9534      9536
      9528      9531      9534      9537      9529      9528      9531      9532
      9529      9528      9531      9533      9529      9528      9531      9534
      9530      9528      9531      9532      9530      9528      9531      9533
      9530      9528      9531      9534      9531      9534      9537      9538
      9531      9534      9537      9539      9531      9534      9537      9540
      9532      9531      9534      9535      9532      9531      9534      9536
      9532      9531      9534      9537      9533      9531      9534      9535
      9533      9531      9534      9536      9533      9531      9534      9537
      9534      9537      9540      9541      9534      9537      9540      9542
      9534      9537      9540      9543      9535      9534      9537      9538
      9535      9534      9537      9539      9535      9534      9537      9540
      9536      9534      9537      9538      9536      9534      9537      9539
      9536      9534      9537      9540      9538      9537      9540      9541
      9538      9537      9540      9542      9538      9537      9540      9543
      9539      9537      9540      9541      9539      9537      9540      9542
      9539      9537      9540      9543      9544      9545      9560      9561
      9544      9545      9560      9562      9544      9545      9560      9566
      9545      9544      9548      9549      9545      9544      9548      9550
      9545      9544      9548      9551      9545      9544      9552      9553
      9545      9544      9552      9554      9545      9544      9552      9555
      9545      9544      9556      9557      9545      9544      9556      9558
      9545      9544      9556      9559      9545      9560      9566      9563
      9546      9545      9544      9548      9546      9545      9544      9552
      9546      9545      9544      9556      9546      9545      9560      9561
      9546      9545      9560      9562      9546      9545      9560      9566
      9547      9545      9544      9548      9547      9545      9544      9552
      9547      9545      9544      9556      9547      9545      9560      9561
      9547      9545      9560      9562      9547      9545      9560      9566
      9548      9544      9545      9560      9548      9544      9552      9553
      9548      9544      9552      9554      9548      9544      9552      9555
      9548      9544      9556      9557      9548      9544      9556      9558
      9548      9544      9556      9559      9549      9548      9544      9552
      9549      9548      9544      9556      9550      9548      9544      9552
      9550      9548      9544      9556      9551      9548      9544      9552
      9551      9548      9544      9556      9552      9544      9545      9560
      9552      9544      9556      9557      9552      9544      9556      9558
      9552      9544      9556      9559      9553      9552      9544      9556
      9554      9552      9544      9556      9555      9552      9544      9556
      9556      9544      9545      9560      9560      9566      9563      9564
      9560      9566      9563      9565      9560      9566      9563      9567
      9561      9560      9566      9563      9562      9560      9566      9563
      9563      9567      9568      9569      9563      9567      9568      9570
      9563      9567      9568      9571      9564      9563      9567      9568
      9565      9563      9567      9568      9566      9563      9567      9568
      9567      9568      9571      9572      9567      9568      9571      9573
      9567      9568      9571      9579      9568      9571      9573      9574
      9568      9571      9579      9580      9568      9571      9579      9581
      9568      9571      9579      9582      9569      9568      9571      9572
      9569      9568      9571      9573      9569      9568      9571      9579
      9570      9568      9571      9572      9570      9568      9571      9573
      9570      9568      9571      9579      9571      9573      9574      9575
      9571      9573      9574      9576      9571      9579      9582      9583
      9572      9571      9573      9574      9572      9571      9579      9580
      9572      9571      9579      9581      9572      9571      9579      9582
      9573      9571      9579      9580      9573      9571      9579      9581
      9573      9571      9579      9582      9573      9574      9576      9577
      9573      9574      9576      9578      9573      9574      9576      9588
      9574      9573      9571      9579      9574      9576      9588      9589
      9574      9576      9588      9590      9574      9576      9588      9591
      9575      9574      9576      9577      9575      9574      9576      9578
      9575      9574      9576      9588      9576      9588      9591      9592
      9576      9588      9591      9593      9576      9588      9591      9594
      9577      9576      9588      9589      9577      9576      9588      9590
      9577      9576      9588      9591      9578      9576      9588      9589
      9578      9576      9588      9590      9578      9576      9588      9591
      9579      9582      9583      9584      9579      9582      9583      9585
      9580      9579      9582      9583      9581      9579      9582      9583
      9582      9583      9585      9586      9582      9583      9585      9587
      9582      9583      9585      9635      9583      9585      9635      9636
      9583      9585      9635      9637      9583      9585      9635      9638
      9584      9583      9585      9586      9584      9583      9585      9587
      9584      9583      9585      9635      9585      9635      9638      9639
      9585      9635      9638      9640      9585      9635      9638      9641
      9586      9585      9635      9636      9586      9585      9635      9637
      9586      9585      9635      9638      9587      9585      9635      9636
      9587      9585      9635      9637      9587      9585      9635      9638
      9588      9591      9594      9595      9588      9591      9594      9596
      9588      9591      9594      9597      9589      9588      9591      9592
      9589      9588      9591      9593      9589      9588      9591      9594
      9590      9588      9591      9592      9590      9588      9591      9593
      9590      9588      9591      9594      9591      9594      9597      9598
      9591      9594      9597      9599      9591      9594      9597      9600
      9592      9591      9594      9595      9592      9591      9594      9596
      9592      9591      9594      9597      9593      9591      9594      9595
      9593      9591      9594      9596      9593      9591      9594      9597
      9594      9597      9600      9601      9594      9597      9600      9602
      9594      9597      9600      9603      9595      9594      9597      9598
      9595      9594      9597      9599      9595      9594      9597      9600
      9596      9594      9597      9598      9596      9594      9597      9599
      9596      9594      9597      9600      9597      9600      9603      9604
      9597      9600      9603      9605      9597      9600      9603      9606
      9598      9597      9600      9601      9598      9597      9600      9602
      9598      9597      9600      9603      9599      9597      9600      9601
      9599      9597      9600      9602      9599      9597      9600      9603
      9600      9603      9606      9607      9600      9603      9606      9608
      9601      9600      9603      9604      9601      9600      9603      9605
      9601      9600      9603      9606      9602      9600      9603      9604
      9602      9600      9603      9605      9602      9600      9603      9606
      9603      9606      9608      9609      9603      9606      9608      9610
      9604      9603      9606      9607      9604      9603      9606      9608
      9605      9603      9606      9607      9605      9603      9606      9608
      9606      9608      9610      9611      9606      9608      9610      9612
      9606      9608      9610      9613      9607      9606      9608      9609
      9607      9606      9608      9610      9608      9610      9613      9614
      9608      9610      9613      9615      9608      9610      9613      9616
      9609      9608      9610      9611      9609      9608      9610      9612
      9609      9608      9610      9613      9610      9613      9616      9617
      9610      9613      9616      9618      9610      9613      9616      9619
      9611      9610      9613      9614      9611      9610      9613      9615
      9611      9610      9613      9616      9612      9610      9613      9614
      9612      9610      9613      9615      9612      9610      9613      9616
      9613      9616      9619      9620      9613      9616      9619      9621
      9613      9616      9619      9622      9614      9613      9616      9617
      9614      9613      9616      9618      9614      9613      9616      9619
      9615      9613      9616      9617      9615      9613      9616      9618
      9615      9613      9616      9619      9616      9619      9622      9623
      9616      9619      9622      9624      9616      9619      9622      9625
      9617      9616      9619      9620      9617      9616      9619      9621
      9617      9616      9619      9622      9618      9616      9619      9620
      9618      9616      9619      9621      9618      9616      9619      9622
      9619      9622      9625      9626      9619      9622      9625      9627
      9619      9622      9625      9628      9620      9619      9622      9623
      9620      9619      9622      9624      9620      9619      9622      9625
      9621      9619      9622      9623      9621      9619      9622      9624
      9621      9619      9622      9625      9622      9625      9628      9629
      9622      9625      9628      9630      9622      9625      9628      9631
      9623      9622      9625      9626      9623      9622      9625      9627
      9623      9622      9625      9628      9624      9622      9625      9626
      9624      9622      9625      9627      9624      9622      9625      9628
      9625      9628      9631      9632      9625      9628      9631      9633
      9625      9628      9631      9634      9626      9625      9628      9629
      9626      9625      9628      9630      9626      9625      9628      9631
      9627      9625      9628      9629      9627      9625      9628      9630
      9627      9625      9628      9631      9629      9628      9631      9632
      9629      9628      9631      9633      9629      9628      9631      9634
      9630      9628      9631      9632      9630      9628      9631      9633
      9630      9628      9631      9634      9635      9638      9641      9642
      9635      9638      9641      9643      9635      9638      9641      9644
      9636      9635      9638      9639      9636      9635      9638      9640
      9636      9635      9638      9641      9637      9635      9638      9639
      9637      9635      9638      9640      9637      9635      9638      9641
      9638      9641      9644      9645      9638      9641      9644      9646
      9638      9641      9644      9647      9639      9638      9641      9642
      9639      9638      9641      9643      9639      9638      9641      9644
      9640      9638      9641      9642      9640      9638      9641      9643
      9640      9638      9641      9644      9641      9644      9647      9648
      9641      9644      9647      9649      9641      9644      9647      9650
      9642      9641      9644      9645      9642      9641      9644      9646
      9642      9641      9644      9647      9643      9641      9644      9645
      9643      9641      9644      9646      9643      9641      9644      9647
      9644      9647      9650      9651      9644      9647      9650      9652
      9644      9647      9650      9653      9645      9644      9647      9648
      9645      9644      9647      9649      9645      9644      9647      9650
      9646      9644      9647      9648      9646      9644      9647      9649
      9646      9644      9647      9650      9647      9650      9653      9654
      9647      9650      9653      9655      9647      9650      9653      9656
      9648      9647      9650      9651      9648      9647      9650      9652
      9648      9647      9650      9653      9649      9647      9650      9651
      9649      9647      9650      9652      9649      9647      9650      9653
      9650      9653      9656      9657      9650      9653      9656      9658
      9650      9653      9656      9659      9651      9650      9653      9654
      9651      9650      9653      9655      9651      9650      9653      9656
      9652      9650      9653      9654      9652      9650      9653      9655
      9652      9650      9653      9656      9653      9656      9659      9660
      9653      9656      9659      9661      9653      9656      9659      9662
      9654      9653      9656      9657      9654      9653      9656      9658
      9654      9653      9656      9659      9655      9653      9656      9657
      9655      9653      9656      9658      9655      9653      9656      9659
      9656      9659      9662      9663      9656      9659      9662      9664
      9656      9659      9662      9665      9657      9656      9659      9660
      9657      9656      9659      9661      9657      9656      9659      9662
      9658      9656      9659      9660      9658      9656      9659      9661
      9658      9656      9659      9662      9659      9662      9665      9666
      9659      9662      9665      9667      9659      9662      9665      9668
      9660      9659      9662      9663      9660      9659      9662      9664
      9660      9659      9662      9665      9661      9659      9662      9663
      9661      9659      9662      9664      9661      9659      9662      9665
      9662      9665      9668      9669      9662      9665      9668      9670
      9662      9665      9668      9671      9663      9662      9665      9666
      9663      9662      9665      9667      9663      9662      9665      9668
      9664      9662      9665      9666      9664      9662      9665      9667
      9664      9662      9665      9668      9665      9668      9671      9672
      9665      9668      9671      9673      9665      9668      9671      9674
      9666      9665      9668      9669      9666      9665      9668      9670
      9666      9665      9668      9671      9667      9665      9668      9669
      9667      9665      9668      9670      9667      9665      9668      9671
      9668      9671      9674      9675      9668      9671      9674      9676
      9668      9671      9674      9677      9669      9668      9671      9672
      9669      9668      9671      9673      9669      9668      9671      9674
      9670      9668      9671      9672      9670      9668      9671      9673
      9670      9668      9671      9674      9672      9671      9674      9675
      9672      9671      9674      9676      9672      9671      9674      9677
      9673      9671      9674      9675      9673      9671      9674      9676
      9673      9671      9674      9677      9678      9679      9694      9695
      9678      9679      9694      9696      9678      9679      9694      9700
      9679      9678      9682      9683      9679      9678      9682      9684
      9679      9678      9682      9685      9679      9678      9686      9687
      9679      9678      9686      9688      9679      9678      9686      9689
      9679      9678      9690      9691      9679      9678      9690      9692
      9679      9678      9690      9693      9679      9694      9700      9697
      9680      9679      9678      9682      9680      9679      9678      9686
      9680      9679      9678      9690      9680      9679      9694      9695
      9680      9679      9694      9696      9680      9679      9694      9700
      9681      9679      9678      9682      9681      9679      9678      9686
      9681      9679      9678      9690      9681      9679      9694      9695
      9681      9679      9694      9696      9681      9679      9694      9700
      9682      9678      9679      9694      9682      9678      9686      9687
      9682      9678      9686      9688      9682      9678      9686      9689
      9682      9678      9690      9691      9682      9678      9690      9692
      9682      9678      9690      9693      9683      9682      9678      9686
      9683      9682      9678      9690      9684      9682      9678      9686
      9684      9682      9678      9690      9685      9682      9678      9686
      9685      9682      9678      9690      9686      9678      9679      9694
      9686      9678      9690      9691      9686      9678      9690      9692
      9686      9678      9690      9693      9687      9686      9678      9690
      9688      9686      9678      9690      9689      9686      9678      9690
      9690      9678      9679      9694      9694      9700      9697      9698
      9694      9700      9697      9699      9694      9700      9697      9701
      9695      9694      9700      9697      9696      9694      9700      9697
      9697      9701      9702      9703      9697      9701      9702      9704
      9697      9701      9702      9705      9698      9697      9701      9702
      9699      9697      9701      9702      9700      9697      9701      9702
      9701      9702      9705      9706      9701      9702      9705      9707
      9701      9702      9705      9713      9702      9705      9707      9708
      9702      9705      9713      9714      9702      9705      9713      9715
      9702      9705      9713      9716      9703      9702      9705      9706
      9703      9702      9705      9707      9703      9702      9705      9713
      9704      9702      9705      9706      9704      9702      9705      9707
      9704      9702      9705      9713      9705      9707      9708      9709
      9705      9707      9708      9710      9705      9713      9716      9717
      9706      9705      9707      9708      9706      9705      9713      9714
      9706      9705      9713      9715      9706      9705      9713      9716
      9707      9705      9713      9714      9707      9705      9713      9715
      9707      9705      9713      9716      9707      9708      9710      9711
      9707      9708      9710      9712      9707      9708      9710      9722
      9708      9707      9705      9713      9708      9710      9722      9723
      9708      9710      9722      9724      9708      9710      9722      9725
      9709      9708      9710      9711      9709      9708      9710      9712
      9709      9708      9710      9722      9710      9722      9725      9726
      9710      9722      9725      9727      9710      9722      9725      9728
      9711      9710      9722      9723      9711      9710      9722      9724
      9711      9710      9722      9725      9712      9710      9722      9723
      9712      9710      9722      9724      9712      9710      9722      9725
      9713      9716      9717      9718      9713      9716      9717      9719
      9714      9713      9716      9717      9715      9713      9716      9717
      9716      9717      9719      9720      9716      9717      9719      9721
      9716      9717      9719      9769      9717      9719      9769      9770
      9717      9719      9769      9771      9717      9719      9769      9772
      9718      9717      9719      9720      9718      9717      9719      9721
      9718      9717      9719      9769      9719      9769      9772      9773
      9719      9769      9772      9774      9719      9769      9772      9775
      9720      9719      9769      9770      9720      9719      9769      9771
      9720      9719      9769      9772      9721      9719      9769      9770
      9721      9719      9769      9771      9721      9719      9769      9772
      9722      9725      9728      9729      9722      9725      9728      9730
      9722      9725      9728      9731      9723      9722      9725      9726
      9723      9722      9725      9727      9723      9722      9725      9728
      9724      9722      9725      9726      9724      9722      9725      9727
      9724      9722      9725      9728      9725      9728      9731      9732
      9725      9728      9731      9733      9725      9728      9731      9734
      9726      9725      9728      9729      9726      9725      9728      9730
      9726      9725      9728      9731      9727      9725      9728      9729
      9727      9725      9728      9730      9727      9725      9728      9731
      9728      9731      9734      9735      9728      9731      9734      9736
      9728      9731      9734      9737      9729      9728      9731      9732
      9729      9728      9731      9733      9729      9728      9731      9734
      9730      9728      9731      9732      9730      9728      9731      9733
      9730      9728      9731      9734      9731      9734      9737      9738
      9731      9734      9737      9739      9731      9734      9737      9740
      9732      9731      9734      9735      9732      9731      9734      9736
      9732      9731      9734      9737      9733      9731      9734      9735
      9733      9731      9734      9736      9733      9731      9734      9737
      9734      9737      9740      9741      9734      9737      9740      9742
      9735      9734      9737      9738      9735      9734      9737      9739
      9735      9734      9737      9740      9736      9734      9737      9738
      9736      9734      9737      9739      9736      9734      9737      9740
      9737      9740      9742      9743      9737      9740      9742      9744
      9738      9737      9740      9741      9738      9737      9740      9742
      9739      9737      9740      9741      9739      9737      9740      9742
      9740      9742      9744      9745      9740      9742      9744      9746
      9740      9742      9744      9747      9741      9740      9742      9743
      9741      9740      9742      9744      9742      9744      9747      9748
      9742      9744      9747      9749      9742      9744      9747      9750
      9743      9742      9744      9745      9743      9742      9744      9746
      9743      9742      9744      9747      9744      9747      9750      9751
      9744      9747      9750      9752      9744      9747      9750      9753
      9745      9744      9747      9748      9745      9744      9747      9749
      9745      9744      9747      9750      9746      9744      9747      9748
      9746      9744      9747      9749      9746      9744      9747      9750
      9747      9750      9753      9754      9747      9750      9753      9755
      9747      9750      9753      9756      9748      9747      9750      9751
      9748      9747      9750      9752      9748      9747      9750      9753
      9749      9747      9750      9751      9749      9747      9750      9752
      9749      9747      9750      9753      9750      9753      9756      9757
      9750      9753      9756      9758      9750      9753      9756      9759
      9751      9750      9753      9754      9751      9750      9753      9755
      9751      9750      9753      9756      9752      9750      9753      9754
      9752      9750      9753      9755      9752      9750      9753      9756
      9753      9756      9759      9760      9753      9756      9759      9761
      9753      9756      9759      9762      9754      9753      9756      9757
      9754      9753      9756      9758      9754      9753      9756      9759
      9755      9753      9756      9757      9755      9753      9756      9758
      9755      9753      9756      9759      9756      9759      9762      9763
      9756      9759      9762      9764      9756      9759      9762      9765
      9757      9756      9759      9760      9757      9756      9759      9761
      9757      9756      9759      9762      9758      9756      9759      9760
      9758      9756      9759      9761      9758      9756      9759      9762
      9759      9762      9765      9766      9759      9762      9765      9767
      9759      9762      9765      9768      9760      9759      9762      9763
      9760      9759      9762      9764      9760      9759      9762      9765
      9761      9759      9762      9763      9761      9759      9762      9764
      9761      9759      9762      9765      9763      9762      9765      9766
      9763      9762      9765      9767      9763      9762      9765      9768
      9764      9762      9765      9766      9764      9762      9765      9767
      9764      9762      9765      9768      9769      9772      9775      9776
      9769      9772      9775      9777      9769      9772      9775      9778
      9770      9769      9772      9773      9770      9769      9772      9774
      9770      9769      9772      9775      9771      9769      9772      9773
      9771      9769      9772      9774      9771      9769      9772      9775
      9772      9775      9778      9779      9772      9775      9778      9780
      9772      9775      9778      9781      9773      9772      9775      9776
      9773      9772      9775      9777      9773      9772      9775      9778
      9774      9772      9775      9776      9774      9772      9775      9777
      9774      9772      9775      9778      9775      9778      9781      9782
      9775      9778      9781      9783      9775      9778      9781      9784
      9776      9775      9778      9779      9776      9775      9778      9780
      9776      9775      9778      9781      9777      9775      9778      9779
      9777      9775      9778      9780      9777      9775      9778      9781
      9778      9781      9784      9785      9778      9781      9784      9786
      9778      9781      9784      9787      9779      9778      9781      9782
      9779      9778      9781      9783      9779      9778      9781      9784
      9780      9778      9781      9782      9780      9778      9781      9783
      9780      9778      9781      9784      9781      9784      9787      9788
      9781      9784      9787      9789      9781      9784      9787      9790
      9782      9781      9784      9785      9782      9781      9784      9786
      9782      9781      9784      9787      9783      9781      9784      9785
      9783      9781      9784      9786      9783      9781      9784      9787
      9784      9787      9790      9791      9784      9787      9790      9792
      9784      9787      9790      9793      9785      9784      9787      9788
      9785      9784      9787      9789      9785      9784      9787      9790
      9786      9784      9787      9788      9786      9784      9787      9789
      9786      9784      9787      9790      9787      9790      9793      9794
      9787      9790      9793      9795      9787      9790      9793      9796
      9788      9787      9790      9791      9788      9787      9790      9792
      9788      9787      9790      9793      9789      9787      9790      9791
      9789      9787      9790      9792      9789      9787      9790      9793
      9790      9793      9796      9797      9790      9793      9796      9798
      9790      9793      9796      9799      9791      9790      9793      9794
      9791      9790      9793      9795      9791      9790      9793      9796
      9792      9790      9793      9794      9792      9790      9793      9795
      9792      9790      9793      9796      9793      9796      9799      9800
      9793      9796      9799      9801      9793      9796      9799      9802
      9794      9793      9796      9797      9794      9793      9796      9798
      9794      9793      9796      9799      9795      9793      9796      9797
      9795      9793      9796      9798      9795      9793      9796      9799
      9796      9799      9802      9803      9796      9799      9802      9804
      9796      9799      9802      9805      9797      9796      9799      9800
      9797      9796      9799      9801      9797      9796      9799      9802
      9798      9796      9799      9800      9798      9796      9799      9801
      9798      9796      9799      9802      9799      9802      9805      9806
      9799      9802      9805      9807      9799      9802      9805      9808
      9800      9799      9802      9803      9800      9799      9802      9804
      9800      9799      9802      9805      9801      9799      9802      9803
      9801      9799      9802      9804      9801      9799      9802      9805
      9802      9805      9808      9809      9802      9805      9808      9810
      9802      9805      9808      9811      9803      9802      9805      9806
      9803      9802      9805      9807      9803      9802      9805      9808
      9804      9802      9805      9806      9804      9802      9805      9807
      9804      9802      9805      9808      9806      9805      9808      9809
      9806      9805      9808      9810      9806      9805      9808      9811
      9807      9805      9808      9809      9807      9805      9808      9810
      9807      9805      9808      9811      9812      9813      9828      9829
      9812      9813      9828      9830      9812      9813      9828      9834
      9813      9812      9816      9817      9813      9812      9816      9818
      9813      9812      9816      9819      9813      9812      9820      9821
      9813      9812      9820      9822      9813      9812      9820      9823
      9813      9812      9824      9825      9813      9812      9824      9826
      9813      9812      9824      9827      9813      9828      9834      9831
      9814      9813      9812      9816      9814      9813      9812      9820
      9814      9813      9812      9824      9814      9813      9828      9829
      9814      9813      9828      9830      9814      9813      9828      9834
      9815      9813      9812      9816      9815      9813      9812      9820
      9815      9813      9812      9824      9815      9813      9828      9829
      9815      9813      9828      9830      9815      9813      9828      9834
      9816      9812      9813      9828      9816      9812      9820      9821
      9816      9812      9820      9822      9816      9812      9820      9823
      9816      9812      9824      9825      9816      9812      9824      9826
      9816      9812      9824      9827      9817      9816      9812      9820
      9817      9816      9812      9824      9818      9816      9812      9820
      9818      9816      9812      9824      9819      9816      9812      9820
      9819      9816      9812      9824      9820      9812      9813      9828
      9820      9812      9824      9825      9820      9812      9824      9826
      9820      9812      9824      9827      9821      9820      9812      9824
      9822      9820      9812      9824      9823      9820      9812      9824
      9824      9812      9813      9828      9828      9834      9831      9832
      9828      9834      9831      9833      9828      9834      9831      9835
      9829      9828      9834      9831      9830      9828      9834      9831
      9831      9835      9836      9837      9831      9835      9836      9838
      9831      9835      9836      9839      9832      9831      9835      9836
      9833      9831      9835      9836      9834      9831      9835      9836
      9835      9836      9839      9840      9835      9836      9839      9841
      9835      9836      9839      9847      9836      9839      9841      9842
      9836      9839      9847      9848      9836      9839      9847      9849
      9836      9839      9847      9850      9837      9836      9839      9840
      9837      9836      9839      9841      9837      9836      9839      9847
      9838      9836      9839      9840      9838      9836      9839      9841
      9838      9836      9839      9847      9839      9841      9842      9843
      9839      9841      9842      9844      9839      9847      9850      9851
      9840      9839      9841      9842      9840      9839      9847      9848
      9840      9839      9847      9849      9840      9839      9847      9850
      9841      9839      9847      9848      9841      9839      9847      9849
      9841      9839      9847      9850      9841      9842      9844      9845
      9841      9842      9844      9846      9841      9842      9844      9856
      9842      9841      9839      9847      9842      9844      9856      9857
      9842      9844      9856      9858      9842      9844      9856      9859
      9843      9842      9844      9845      9843      9842      9844      9846
      9843      9842      9844      9856      9844      9856      9859      9860
      9844      9856      9859      9861      9844      9856      9859      9862
      9845      9844      9856      9857      9845      9844      9856      9858
      9845      9844      9856      9859      9846      9844      9856      9857
      9846      9844      9856      9858      9846      9844      9856      9859
      9847      9850      9851      9852      9847      9850      9851      9853
      9848      9847      9850      9851      9849      9847      9850      9851
      9850      9851      9853      9854      9850      9851      9853      9855
      9850      9851      9853      9903      9851      9853      9903      9904
      9851      9853      9903      9905      9851      9853      9903      9906
      9852      9851      9853      9854      9852      9851      9853      9855
      9852      9851      9853      9903      9853      9903      9906      9907
      9853      9903      9906      9908      9853      9903      9906      9909
      9854      9853      9903      9904      9854      9853      9903      9905
      9854      9853      9903      9906      9855      9853      9903      9904
      9855      9853      9903      9905      9855      9853      9903      9906
      9856      9859      9862      9863      9856      9859      9862      9864
      9856      9859      9862      9865      9857      9856      9859      9860
      9857      9856      9859      9861      9857      9856      9859      9862
      9858      9856      9859      9860      9858      9856      9859      9861
      9858      9856      9859      9862      9859      9862      9865      9866
      9859      9862      9865      9867      9859      9862      9865      9868
      9860      9859      9862      9863      9860      9859      9862      9864
      9860      9859      9862      9865      9861      9859      9862      9863
      9861      9859      9862      9864      9861      9859      9862      9865
      9862      9865      9868      9869      9862      9865      9868      9870
      9862      9865      9868      9871      9863      9862      9865      9866
      9863      9862      9865      9867      9863      9862      9865      9868
      9864      9862      9865      9866      9864      9862      9865      9867
      9864      9862      9865      9868      9865      9868      9871      9872
      9865      9868      9871      9873      9865      9868      9871      9874
      9866      9865      9868      9869      9866      9865      9868      9870
      9866      9865      9868      9871      9867      9865      9868      9869
      9867      9865      9868      9870      9867      9865      9868      9871
      9868      9871      9874      9875      9868      9871      9874      9876
      9869      9868      9871      9872      9869      9868      9871      9873
      9869      9868      9871      9874      9870      9868      9871      9872
      9870      9868      9871      9873      9870      9868      9871      9874
      9871      9874      9876      9877      9871      9874      9876      9878
      9872      9871      9874      9875      9872      9871      9874      9876
      9873      9871      9874      9875      9873      9871      9874      9876
      9874      9876      9878      9879      9874      9876      9878      9880
      9874      9876      9878      9881      9875      9874      9876      9877
      9875      9874      9876      9878      9876      9878      9881      9882
      9876      9878      9881      9883      9876      9878      9881      9884
      9877      9876      9878      9879      9877      9876      9878      9880
      9877      9876      9878      9881      9878      9881      9884      9885
      9878      9881      9884      9886      9878      9881      9884      9887
      9879      9878      9881      9882      9879      9878      9881      9883
      9879      9878      9881      9884      9880      9878      9881      9882
      9880      9878      9881      9883      9880      9878      9881      9884
      9881      9884      9887      9888      9881      9884      9887      9889
      9881      9884      9887      9890      9882      9881      9884      9885
      9882      9881      9884      9886      9882      9881      9884      9887
      9883      9881      9884      9885      9883      9881      9884      9886
      9883      9881      9884      9887      9884      9887      9890      9891
      9884      9887      9890      9892      9884      9887      9890      9893
      9885      9884      9887      9888      9885      9884      9887      9889
      9885      9884      9887      9890      9886      9884      9887      9888
      9886      9884      9887      9889      9886      9884      9887      9890
      9887      9890      9893      9894      9887      9890      9893      9895
      9887      9890      9893      9896      9888      9887      9890      9891
      9888      9887      9890      9892      9888      9887      9890      9893
      9889      9887      9890      9891      9889      9887      9890      9892
      9889      9887      9890      9893      9890      9893      9896      9897
      9890      9893      9896      9898      9890      9893      9896      9899
      9891      9890      9893      9894      9891      9890      9893      9895
      9891      9890      9893      9896      9892      9890      9893      9894
      9892      9890      9893      9895      9892      9890      9893      9896
      9893      9896      9899      9900      9893      9896      9899      9901
      9893      9896      9899      9902      9894      9893      9896      9897
      9894      9893      9896      9898      9894      9893      9896      9899
      9895      9893      9896      9897      9895      9893      9896      9898
      9895      9893      9896      9899      9897      9896      9899      9900
      9897      9896      9899      9901      9897      9896      9899      9902
      9898      9896      9899      9900      9898      9896      9899      9901
      9898      9896      9899      9902      9903      9906      9909      9910
      9903      9906      9909      9911      9903      9906      9909      9912
      9904      9903      9906      9907      9904      9903      9906      9908
      9904      9903      9906      9909      9905      9903      9906      9907
      9905      9903      9906      9908      9905      9903      9906      9909
      9906      9909      9912      9913      9906      9909      9912      9914
      9906      9909      9912      9915      9907      9906      9909      9910
      9907      9906      9909      9911      9907      9906      9909      9912
      9908      9906      9909      9910      9908      9906      9909      9911
      9908      9906      9909      9912      9909      9912      9915      9916
      9909      9912      9915      9917      9909      9912      9915      9918
      9910      9909      9912      9913      9910      9909      9912      9914
      9910      9909      9912      9915      9911      9909      9912      9913
      9911      9909      9912      9914      9911      9909      9912      9915
      9912      9915      9918      9919      9912      9915      9918      9920
      9912      9915      9918      9921      9913      9912      9915      9916
      9913      9912      9915      9917      9913      9912      9915      9918
      9914      9912      9915      9916      9914      9912      9915      9917
      9914      9912      9915      9918      9915      9918      9921      9922
      9915      9918      9921      9923      9915      9918      9921      9924
      9916      9915      9918      9919      9916      9915      9918      9920
      9916      9915      9918      9921      9917      9915      9918      9919
      9917      9915      9918      9920      9917      9915      9918      9921
      9918      9921      9924      9925      9918      9921      9924      9926
      9918      9921      9924      9927      9919      9918      9921      9922
      9919      9918      9921      9923      9919      9918      9921      9924
      9920      9918      9921      9922      9920      9918      9921      9923
      9920      9918      9921      9924      9921      9924      9927      9928
      9921      9924      9927      9929      9921      9924      9927      9930
      9922      9921      9924      9925      9922      9921      9924      9926
      9922      9921      9924      9927      9923      9921      9924      9925
      9923      9921      9924      9926      9923      9921      9924      9927
      9924      9927      9930      9931      9924      9927      9930      9932
      9924      9927      9930      9933      9925      9924      9927      9928
      9925      9924      9927      9929      9925      9924      9927      9930
      9926      9924      9927      9928      9926      9924      9927      9929
      9926      9924      9927      9930      9927      9930      9933      9934
      9927      9930      9933      9935      9927      9930      9933      9936
      9928      9927      9930      9931      9928      9927      9930      9932
      9928      9927      9930      9933      9929      9927      9930      9931
      9929      9927      9930      9932      9929      9927      9930      9933
      9930      9933      9936      9937      9930      9933      9936      9938
      9930      9933      9936      9939      9931      9930      9933      9934
      9931      9930      9933      9935      9931      9930      9933      9936
      9932      9930      9933      9934      9932      9930      9933      9935
      9932      9930      9933      9936      9933      9936      9939      9940
      9933      9936      9939      9941      9933      9936      9939      9942
      9934      9933      9936      9937      9934      9933      9936      9938
      9934      9933      9936      9939      9935      9933      9936      9937
      9935      9933      9936      9938      9935      9933      9936      9939
      9936      9939      9942      9943      9936      9939      9942      9944
      9936      9939      9942      9945      9937      9936      9939      9940
      9937      9936      9939      9941      9937      9936      9939      9942
      9938      9936      9939      9940      9938      9936      9939      9941
      9938      9936      9939      9942      9940      9939      9942      9943
      9940      9939      9942      9944      9940      9939      9942      9945
      9941      9939      9942      9943      9941      9939      9942      9944
      9941      9939      9942      9945      9946      9950      9952      9953
      9946      9950      9952      9954      9946      9950      9955      9956
      9946      9950      9955      9957      9946      9950      9955      9961
      9947      9946      9950      9951      9947      9946      9950      9952
      9947      9946      9950      9955      9948      9946      9950      9951
      9948      9946      9950      9952      9948      9946      9950      9955
      9949      9946      9950      9951      9949      9946      9950      9952
      9949      9946      9950      9955      9950      9955      9961      9958
      9951      9950      9952      9953      9951      9950      9952      9954
      9951      9950      9955      9956      9951      9950      9955      9957
      9951      9950      9955      9961      9952      9950      9955      9956
      9952      9950      9955      9957      9952      9950      9955      9961
      9953      9952      9950      9955      9954      9952      9950      9955
      9955      9961      9958      9959      9955      9961      9958      9960
      9955      9961      9958      9962      9956      9955      9961      9958
      9957      9955      9961      9958      9958      9962      9963      9964
      9958      9962      9963      9965      9958      9962      9963      9966
      9959      9958      9962      9963      9960      9958      9962      9963
      9961      9958      9962      9963      9962      9963      9966      9967
      9962      9963      9966      9968      9962      9963      9966      9974
      9963      9966      9968      9969      9963      9966      9974      9975
      9963      9966      9974      9976      9963      9966      9974      9977
      9964      9963      9966      9967      9964      9963      9966      9968
      9964      9963      9966      9974      9965      9963      9966      9967
      9965      9963      9966      9968      9965      9963      9966      9974
      9966      9968      9969      9970      9966      9968      9969      9971
      9966      9974      9977      9978      9967      9966      9968      9969
      9967      9966      9974      9975      9967      9966      9974      9976
      9967      9966      9974      9977      9968      9966      9974      9975
      9968      9966      9974      9976      9968      9966      9974      9977
      9968      9969      9971      9972      9968      9969      9971      9973
      9968      9969      9971      9983      9969      9968      9966      9974
      9969      9971      9983      9984      9969      9971      9983      9985
      9969      9971      9983      9986      9970      9969      9971      9972
      9970      9969      9971      9973      9970      9969      9971      9983
      9971      9983      9986      9987      9971      9983      9986      9988
      9971      9983      9986      9989      9972      9971      9983      9984
      9972      9971      9983      9985      9972      9971      9983      9986
      9973      9971      9983      9984      9973      9971      9983      9985
      9973      9971      9983      9986      9974      9977      9978      9979
      9974      9977      9978      9980      9975      9974      9977      9978
      9976      9974      9977      9978      9977      9978      9980      9981
      9977      9978      9980      9982      9977      9978      9980     10030
      9978      9980     10030     10031      9978      9980     10030     10032
      9978      9980     10030     10033      9979      9978      9980      9981
      9979      9978      9980      9982      9979      9978      9980     10030
      9980     10030     10033     10034      9980     10030     10033     10035
      9980     10030     10033     10036      9981      9980     10030     10031
      9981      9980     10030     10032      9981      9980     10030     10033
      9982      9980     10030     10031      9982      9980     10030     10032
      9982      9980     10030     10033      9983      9986      9989      9990
      9983      9986      9989      9991      9983      9986      9989      9992
      9984      9983      9986      9987      9984      9983      9986      9988
      9984      9983      9986      9989      9985      9983      9986      9987
      9985      9983      9986      9988      9985      9983      9986      9989
      9986      9989      9992      9993      9986      9989      9992      9994
      9986      9989      9992      9995      9987      9986      9989      9990
      9987      9986      9989      9991      9987      9986      9989      9992
      9988      9986      9989      9990      9988      9986      9989      9991
      9988      9986      9989      9992      9989      9992      9995      9996
      9989      9992      9995      9997      9989      9992      9995      9998
      9990      9989      9992      9993      9990      9989      9992      9994
      9990      9989      9992      9995      9991      9989      9992      9993
      9991      9989      9992      9994      9991      9989      9992      9995
      9992      9995      9998      9999      9992      9995      9998     10000
      9992      9995      9998     10001      9993      9992      9995      9996
      9993      9992      9995      9997      9993      9992      9995      9998
      9994      9992      9995      9996      9994      9992      9995      9997
      9994      9992      9995      9998      9995      9998     10001     10002
      9995      9998     10001     10003      9996      9995      9998      9999
      9996      9995      9998     10000      9996      9995      9998     10001
      9997      9995      9998      9999      9997      9995      9998     10000
      9997      9995      9998     10001      9998     10001     10003     10004
      9998     10001     10003     10005      9999      9998     10001     10002
      9999      9998     10001     10003     10000      9998     10001     10002
     10000      9998     10001     10003     10001     10003     10005     10006
     10001     10003     10005     10007     10001     10003     10005     10008
     10002     10001     10003     10004     10002     10001     10003     10005
     10003     10005     10008     10009     10003     10005     10008     10010
     10003     10005     10008     10011     10004     10003     10005     10006
     10004     10003     10005     10007     10004     10003     10005     10008
     10005     10008     10011     10012     10005     10008     10011     10013
     10005     10008     10011     10014     10006     10005     10008     10009
     10006     10005     10008     10010     10006     10005     10008     10011
     10007     10005     10008     10009     10007     10005     10008     10010
     10007     10005     10008     10011     10008     10011     10014     10015
     10008     10011     10014     10016     10008     10011     10014     10017
     10009     10008     10011     10012     10009     10008     10011     10013
     10009     10008     10011     10014     10010     10008     10011     10012
     10010     10008     10011     10013     10010     10008     10011     10014
     10011     10014     10017     10018     10011     10014     10017     10019
     10011     10014     10017     10020     10012     10011     10014     10015
     10012     10011     10014     10016     10012     10011     10014     10017
     10013     10011     10014     10015     10013     10011     10014     10016
     10013     10011     10014     10017     10014     10017     10020     10021
     10014     10017     10020     10022     10014     10017     10020     10023
     10015     10014     10017     10018     10015     10014     10017     10019
     10015     10014     10017     10020     10016     10014     10017     10018
     10016     10014     10017     10019     10016     10014     10017     10020
     10017     10020     10023     10024     10017     10020     10023     10025
     10017     10020     10023     10026     10018     10017     10020     10021
     10018     10017     10020     10022     10018     10017     10020     10023
     10019     10017     10020     10021     10019     10017     10020     10022
     10019     10017     10020     10023     10020     10023     10026     10027
     10020     10023     10026     10028     10020     10023     10026     10029
     10021     10020     10023     10024     10021     10020     10023     10025
     10021     10020     10023     10026     10022     10020     10023     10024
     10022     10020     10023     10025     10022     10020     10023     10026
     10024     10023     10026     10027     10024     10023     10026     10028
     10024     10023     10026     10029     10025     10023     10026     10027
     10025     10023     10026     10028     10025     10023     10026     10029
     10030     10033     10036     10037     10030     10033     10036     10038
     10030     10033     10036     10039     10031     10030     10033     10034
     10031     10030     10033     10035     10031     10030     10033     10036
     10032     10030     10033     10034     10032     10030     10033     10035
     10032     10030     10033     10036     10033     10036     10039     10040
     10033     10036     10039     10041     10033     10036     10039     10042
     10034     10033     10036     10037     10034     10033     10036     10038
     10034     10033     10036     10039     10035     10033     10036     10037
     10035     10033     10036     10038     10035     10033     10036     10039
     10036     10039     10042     10043     10036     10039     10042     10044
     10036     10039     10042     10045     10037     10036     10039     10040
     10037     10036     10039     10041     10037     10036     10039     10042
     10038     10036     10039     10040     10038     10036     10039     10041
     10038     10036     10039     10042     10039     10042     10045     10046
     10039     10042     10045     10047     10039     10042     10045     10048
     10040     10039     10042     10043     10040     10039     10042     10044
     10040     10039     10042     10045     10041     10039     10042     10043
     10041     10039     10042     10044     10041     10039     10042     10045
     10042     10045     10048     10049     10042     10045     10048     10050
     10042     10045     10048     10051     10043     10042     10045     10046
     10043     10042     10045     10047     10043     10042     10045     10048
     10044     10042     10045     10046     10044     10042     10045     10047
     10044     10042     10045     10048     10045     10048     10051     10052
     10045     10048     10051     10053     10045     10048     10051     10054
     10046     10045     10048     10049     10046     10045     10048     10050
     10046     10045     10048     10051     10047     10045     10048     10049
     10047     10045     10048     10050     10047     10045     10048     10051
     10048     10051     10054     10055     10048     10051     10054     10056
     10048     10051     10054     10057     10049     10048     10051     10052
     10049     10048     10051     10053     10049     10048     10051     10054
     10050     10048     10051     10052     10050     10048     10051     10053
     10050     10048     10051     10054     10051     10054     10057     10058
     10051     10054     10057     10059     10051     10054     10057     10060
     10052     10051     10054     10055     10052     10051     10054     10056
     10052     10051     10054     10057     10053     10051     10054     10055
     10053     10051     10054     10056     10053     10051     10054     10057
     10054     10057     10060     10061     10054     10057     10060     10062
     10054     10057     10060     10063     10055     10054     10057     10058
     10055     10054     10057     10059     10055     10054     10057     10060
     10056     10054     10057     10058     10056     10054     10057     10059
     10056     10054     10057     10060     10057     10060     10063     10064
     10057     10060     10063     10065     10057     10060     10063     10066
     10058     10057     10060     10061     10058     10057     10060     10062
     10058     10057     10060     10063     10059     10057     10060     10061
     10059     10057     10060     10062     10059     10057     10060     10063
     10060     10063     10066     10067     10060     10063     10066     10068
     10060     10063     10066     10069     10061     10060     10063     10064
     10061     10060     10063     10065     10061     10060     10063     10066
     10062     10060     10063     10064     10062     10060     10063     10065
     10062     10060     10063     10066     10063     10066     10069     10070
     10063     10066     10069     10071     10063     10066     10069     10072
     10064     10063     10066     10067     10064     10063     10066     10068
     10064     10063     10066     10069     10065     10063     10066     10067
     10065     10063     10066     10068     10065     10063     10066     10069
     10067     10066     10069     10070     10067     10066     10069     10071
     10067     10066     10069     10072     10068     10066     10069     10070
     10068     10066     10069     10071     10068     10066     10069     10072
     10073     10074     10089     10090     10073     10074     10089     10091
     10073     10074     10089     10095     10074     10073     10077     10078
     10074     10073     10077     10079     10074     10073     10077     10080
     10074     10073     10081     10082     10074     10073     10081     10083
     10074     10073     10081     10084     10074     10073     10085     10086
     10074     10073     10085     10087     10074     10073     10085     10088
     10074     10089     10095     10092     10075     10074     10073     10077
     10075     10074     10073     10081     10075     10074     10073     10085
     10075     10074     10089     10090     10075     10074     10089     10091
     10075     10074     10089     10095     10076     10074     10073     10077
     10076     10074     10073     10081     10076     10074     10073     10085
     10076     10074     10089     10090     10076     10074     10089     10091
     10076     10074     10089     10095     10077     10073     10074     10089
     10077     10073     10081     10082     10077     10073     10081     10083
     10077     10073     10081     10084     10077     10073     10085     10086
     10077     10073     10085     10087     10077     10073     10085     10088
     10078     10077     10073     10081     10078     10077     10073     10085
     10079     10077     10073     10081     10079     10077     10073     10085
     10080     10077     10073     10081     10080     10077     10073     10085
     10081     10073     10074     10089     10081     10073     10085     10086
     10081     10073     10085     10087     10081     10073     10085     10088
     10082     10081     10073     10085     10083     10081     10073     10085
     10084     10081     10073     10085     10085     10073     10074     10089
     10089     10095     10092     10093     10089     10095     10092     10094
     10089     10095     10092     10096     10090     10089     10095     10092
     10091     10089     10095     10092     10092     10096     10097     10098
     10092     10096     10097     10099     10092     10096     10097     10100
     10093     10092     10096     10097     10094     10092     10096     10097
     10095     10092     10096     10097     10096     10097     10100     10101
     10096     10097     10100     10102     10096     10097     10100     10108
     10097     10100     10102     10103     10097     10100     10108     10109
     10097     10100     10108     10110     10097     10100     10108     10111
     10098     10097     10100     10101     10098     10097     10100     10102
     10098     10097     10100     10108     10099     10097     10100     10101
     10099     10097     10100     10102     10099     10097     10100     10108
     10100     10102     10103     10104     10100     10102     10103     10105
     10100     10108     10111     10112     10101     10100     10102     10103
     10101     10100     10108     10109     10101     10100     10108     10110
     10101     10100     10108     10111     10102     10100     10108     10109
     10102     10100     10108     10110     10102     10100     10108     10111
     10102     10103     10105     10106     10102     10103     10105     10107
     10102     10103     10105     10117     10103     10102     10100     10108
     10103     10105     10117     10118     10103     10105     10117     10119
     10103     10105     10117     10120     10104     10103     10105     10106
     10104     10103     10105     10107     10104     10103     10105     10117
     10105     10117     10120     10121     10105     10117     10120     10122
     10105     10117     10120     10123     10106     10105     10117     10118
     10106     10105     10117     10119     10106     10105     10117     10120
     10107     10105     10117     10118     10107     10105     10117     10119
     10107     10105     10117     10120     10108     10111     10112     10113
     10108     10111     10112     10114     10109     10108     10111     10112
     10110     10108     10111     10112     10111     10112     10114     10115
     10111     10112     10114     10116     10111     10112     10114     10164
     10112     10114     10164     10165     10112     10114     10164     10166
     10112     10114     10164     10167     10113     10112     10114     10115
     10113     10112     10114     10116     10113     10112     10114     10164
     10114     10164     10167     10168     10114     10164     10167     10169
     10114     10164     10167     10170     10115     10114     10164     10165
     10115     10114     10164     10166     10115     10114     10164     10167
     10116     10114     10164     10165     10116     10114     10164     10166
     10116     10114     10164     10167     10117     10120     10123     10124
     10117     10120     10123     10125     10117     10120     10123     10126
     10118     10117     10120     10121     10118     10117     10120     10122
     10118     10117     10120     10123     10119     10117     10120     10121
     10119     10117     10120     10122     10119     10117     10120     10123
     10120     10123     10126     10127     10120     10123     10126     10128
     10120     10123     10126     10129     10121     10120     10123     10124
     10121     10120     10123     10125     10121     10120     10123     10126
     10122     10120     10123     10124     10122     10120     10123     10125
     10122     10120     10123     10126     10123     10126     10129     10130
     10123     10126     10129     10131     10123     10126     10129     10132
     10124     10123     10126     10127     10124     10123     10126     10128
     10124     10123     10126     10129     10125     10123     10126     10127
     10125     10123     10126     10128     10125     10123     10126     10129
     10126     10129     10132     10133     10126     10129     10132     10134
     10126     10129     10132     10135     10127     10126     10129     10130
     10127     10126     10129     10131     10127     10126     10129     10132
     10128     10126     10129     10130     10128     10126     10129     10131
     10128     10126     10129     10132     10129     10132     10135     10136
     10129     10132     10135     10137     10130     10129     10132     10133
     10130     10129     10132     10134     10130     10129     10132     10135
     10131     10129     10132     10133     10131     10129     10132     10134
     10131     10129     10132     10135     10132     10135     10137     10138
     10132     10135     10137     10139     10133     10132     10135     10136
     10133     10132     10135     10137     10134     10132     10135     10136
     10134     10132     10135     10137     10135     10137     10139     10140
     10135     10137     10139     10141     10135     10137     10139     10142
     10136     10135     10137     10138     10136     10135     10137     10139
     10137     10139     10142     10143     10137     10139     10142     10144
     10137     10139     10142     10145     10138     10137     10139     10140
     10138     10137     10139     10141     10138     10137     10139     10142
     10139     10142     10145     10146     10139     10142     10145     10147
     10139     10142     10145     10148     10140     10139     10142     10143
     10140     10139     10142     10144     10140     10139     10142     10145
     10141     10139     10142     10143     10141     10139     10142     10144
     10141     10139     10142     10145     10142     10145     10148     10149
     10142     10145     10148     10150     10142     10145     10148     10151
     10143     10142     10145     10146     10143     10142     10145     10147
     10143     10142     10145     10148     10144     10142     10145     10146
     10144     10142     10145     10147     10144     10142     10145     10148
     10145     10148     10151     10152     10145     10148     10151     10153
     10145     10148     10151     10154     10146     10145     10148     10149
     10146     10145     10148     10150     10146     10145     10148     10151
     10147     10145     10148     10149     10147     10145     10148     10150
     10147     10145     10148     10151     10148     10151     10154     10155
     10148     10151     10154     10156     10148     10151     10154     10157
     10149     10148     10151     10152     10149     10148     10151     10153
     10149     10148     10151     10154     10150     10148     10151     10152
     10150     10148     10151     10153     10150     10148     10151     10154
     10151     10154     10157     10158     10151     10154     10157     10159
     10151     10154     10157     10160     10152     10151     10154     10155
     10152     10151     10154     10156     10152     10151     10154     10157
     10153     10151     10154     10155     10153     10151     10154     10156
     10153     10151     10154     10157     10154     10157     10160     10161
     10154     10157     10160     10162     10154     10157     10160     10163
     10155     10154     10157     10158     10155     10154     10157     10159
     10155     10154     10157     10160     10156     10154     10157     10158
     10156     10154     10157     10159     10156     10154     10157     10160
     10158     10157     10160     10161     10158     10157     10160     10162
     10158     10157     10160     10163     10159     10157     10160     10161
     10159     10157     10160     10162     10159     10157     10160     10163
     10164     10167     10170     10171     10164     10167     10170     10172
     10164     10167     10170     10173     10165     10164     10167     10168
     10165     10164     10167     10169     10165     10164     10167     10170
     10166     10164     10167     10168     10166     10164     10167     10169
     10166     10164     10167     10170     10167     10170     10173     10174
     10167     10170     10173     10175     10167     10170     10173     10176
     10168     10167     10170     10171     10168     10167     10170     10172
     10168     10167     10170     10173     10169     10167     10170     10171
     10169     10167     10170     10172     10169     10167     10170     10173
     10170     10173     10176     10177     10170     10173     10176     10178
     10170     10173     10176     10179     10171     10170     10173     10174
     10171     10170     10173     10175     10171     10170     10173     10176
     10172     10170     10173     10174     10172     10170     10173     10175
     10172     10170     10173     10176     10173     10176     10179     10180
     10173     10176     10179     10181     10173     10176     10179     10182
     10174     10173     10176     10177     10174     10173     10176     10178
     10174     10173     10176     10179     10175     10173     10176     10177
     10175     10173     10176     10178     10175     10173     10176     10179
     10176     10179     10182     10183     10176     10179     10182     10184
     10176     10179     10182     10185     10177     10176     10179     10180
     10177     10176     10179     10181     10177     10176     10179     10182
     10178     10176     10179     10180     10178     10176     10179     10181
     10178     10176     10179     10182     10179     10182     10185     10186
     10179     10182     10185     10187     10179     10182     10185     10188
     10180     10179     10182     10183     10180     10179     10182     10184
     10180     10179     10182     10185     10181     10179     10182     10183
     10181     10179     10182     10184     10181     10179     10182     10185
     10182     10185     10188     10189     10182     10185     10188     10190
     10182     10185     10188     10191     10183     10182     10185     10186
     10183     10182     10185     10187     10183     10182     10185     10188
     10184     10182     10185     10186     10184     10182     10185     10187
     10184     10182     10185     10188     10185     10188     10191     10192
     10185     10188     10191     10193     10185     10188     10191     10194
     10186     10185     10188     10189     10186     10185     10188     10190
     10186     10185     10188     10191     10187     10185     10188     10189
     10187     10185     10188     10190     10187     10185     10188     10191
     10188     10191     10194     10195     10188     10191     10194     10196
     10188     10191     10194     10197     10189     10188     10191     10192
     10189     10188     10191     10193     10189     10188     10191     10194
     10190     10188     10191     10192     10190     10188     10191     10193
     10190     10188     10191     10194     10191     10194     10197     10198
     10191     10194     10197     10199     10191     10194     10197     10200
     10192     10191     10194     10195     10192     10191     10194     10196
     10192     10191     10194     10197     10193     10191     10194     10195
     10193     10191     10194     10196     10193     10191     10194     10197
     10194     10197     10200     10201     10194     10197     10200     10202
     10194     10197     10200     10203     10195     10194     10197     10198
     10195     10194     10197     10199     10195     10194     10197     10200
     10196     10194     10197     10198     10196     10194     10197     10199
     10196     10194     10197     10200     10197     10200     10203     10204
     10197     10200     10203     10205     10197     10200     10203     10206
     10198     10197     10200     10201     10198     10197     10200     10202
     10198     10197     10200     10203     10199     10197     10200     10201
     10199     10197     10200     10202     10199     10197     10200     10203
     10201     10200     10203     10204     10201     10200     10203     10205
     10201     10200     10203     10206     10202     10200     10203     10204
     10202     10200     10203     10205     10202     10200     10203     10206
     10207     10211     10213     10214     10207     10211     10213     10215
     10207     10211     10216     10217     10207     10211     10216     10218
     10207     10211     10216     10222     10208     10207     10211     10212
     10208     10207     10211     10213     10208     10207     10211     10216
     10209     10207     10211     10212     10209     10207     10211     10213
     10209     10207     10211     10216     10210     10207     10211     10212
     10210     10207     10211     10213     10210     10207     10211     10216
     10211     10216     10222     10219     10212     10211     10213     10214
     10212     10211     10213     10215     10212     10211     10216     10217
     10212     10211     10216     10218     10212     10211     10216     10222
     10213     10211     10216     10217     10213     10211     10216     10218
     10213     10211     10216     10222     10214     10213     10211     10216
     10215     10213     10211     10216     10216     10222     10219     10220
     10216     10222     10219     10221     10216     10222     10219     10223
     10217     10216     10222     10219     10218     10216     10222     10219
     10219     10223     10224     10225     10219     10223     10224     10226
     10219     10223     10224     10227     10220     10219     10223     10224
     10221     10219     10223     10224     10222     10219     10223     10224
     10223     10224     10227     10228     10223     10224     10227     10229
     10223     10224     10227     10235     10224     10227     10229     10230
     10224     10227     10235     10236     10224     10227     10235     10237
     10224     10227     10235     10238     10225     10224     10227     10228
     10225     10224     10227     10229     10225     10224     10227     10235
     10226     10224     10227     10228     10226     10224     10227     10229
     10226     10224     10227     10235     10227     10229     10230     10231
     10227     10229     10230     10232     10227     10235     10238     10239
     10228     10227     10229     10230     10228     10227     10235     10236
     10228     10227     10235     10237     10228     10227     10235     10238
     10229     10227     10235     10236     10229     10227     10235     10237
     10229     10227     10235     10238     10229     10230     10232     10233
     10229     10230     10232     10234     10229     10230     10232     10244
     10230     10229     10227     10235     10230     10232     10244     10245
     10230     10232     10244     10246     10230     10232     10244     10247
     10231     10230     10232     10233     10231     10230     10232     10234
     10231     10230     10232     10244     10232     10244     10247     10248
     10232     10244     10247     10249     10232     10244     10247     10250
     10233     10232     10244     10245     10233     10232     10244     10246
     10233     10232     10244     10247     10234     10232     10244     10245
     10234     10232     10244     10246     10234     10232     10244     10247
     10235     10238     10239     10240     10235     10238     10239     10241
     10236     10235     10238     10239     10237     10235     10238     10239
     10238     10239     10241     10242     10238     10239     10241     10243
     10238     10239     10241     10291     10239     10241     10291     10292
     10239     10241     10291     10293     10239     10241     10291     10294
     10240     10239     10241     10242     10240     10239     10241     10243
     10240     10239     10241     10291     10241     10291     10294     10295
     10241     10291     10294     10296     10241     10291     10294     10297
     10242     10241     10291     10292     10242     10241     10291     10293
     10242     10241     10291     10294     10243     10241     10291     10292
     10243     10241     10291     10293     10243     10241     10291     10294
     10244     10247     10250     10251     10244     10247     10250     10252
     10244     10247     10250     10253     10245     10244     10247     10248
     10245     10244     10247     10249     10245     10244     10247     10250
     10246     10244     10247     10248     10246     10244     10247     10249
     10246     10244     10247     10250     10247     10250     10253     10254
     10247     10250     10253     10255     10247     10250     10253     10256
     10248     10247     10250     10251     10248     10247     10250     10252
     10248     10247     10250     10253     10249     10247     10250     10251
     10249     10247     10250     10252     10249     10247     10250     10253
     10250     10253     10256     10257     10250     10253     10256     10258
     10250     10253     10256     10259     10251     10250     10253     10254
     10251     10250     10253     10255     10251     10250     10253     10256
     10252     10250     10253     10254     10252     10250     10253     10255
     10252     10250     10253     10256     10253     10256     10259     10260
     10253     10256     10259     10261     10253     10256     10259     10262
     10254     10253     10256     10257     10254     10253     10256     10258
     10254     10253     10256     10259     10255     10253     10256     10257
     10255     10253     10256     10258     10255     10253     10256     10259
     10256     10259     10262     10263     10256     10259     10262     10264
     10257     10256     10259     10260     10257     10256     10259     10261
     10257     10256     10259     10262     10258     10256     10259     10260
     10258     10256     10259     10261     10258     10256     10259     10262
     10259     10262     10264     10265     10259     10262     10264     10266
     10260     10259     10262     10263     10260     10259     10262     10264
     10261     10259     10262     10263     10261     10259     10262     10264
     10262     10264     10266     10267     10262     10264     10266     10268
     10262     10264     10266     10269     10263     10262     10264     10265
     10263     10262     10264     10266     10264     10266     10269     10270
     10264     10266     10269     10271     10264     10266     10269     10272
     10265     10264     10266     10267     10265     10264     10266     10268
     10265     10264     10266     10269     10266     10269     10272     10273
     10266     10269     10272     10274     10266     10269     10272     10275
     10267     10266     10269     10270     10267     10266     10269     10271
     10267     10266     10269     10272     10268     10266     10269     10270
     10268     10266     10269     10271     10268     10266     10269     10272
     10269     10272     10275     10276     10269     10272     10275     10277
     10269     10272     10275     10278     10270     10269     10272     10273
     10270     10269     10272     10274     10270     10269     10272     10275
     10271     10269     10272     10273     10271     10269     10272     10274
     10271     10269     10272     10275     10272     10275     10278     10279
     10272     10275     10278     10280     10272     10275     10278     10281
     10273     10272     10275     10276     10273     10272     10275     10277
     10273     10272     10275     10278     10274     10272     10275     10276
     10274     10272     10275     10277     10274     10272     10275     10278
     10275     10278     10281     10282     10275     10278     10281     10283
     10275     10278     10281     10284     10276     10275     10278     10279
     10276     10275     10278     10280     10276     10275     10278     10281
     10277     10275     10278     10279     10277     10275     10278     10280
     10277     10275     10278     10281     10278     10281     10284     10285
     10278     10281     10284     10286     10278     10281     10284     10287
     10279     10278     10281     10282     10279     10278     10281     10283
     10279     10278     10281     10284     10280     10278     10281     10282
     10280     10278     10281     10283     10280     10278     10281     10284
     10281     10284     10287     10288     10281     10284     10287     10289
     10281     10284     10287     10290     10282     10281     10284     10285
     10282     10281     10284     10286     10282     10281     10284     10287
     10283     10281     10284     10285     10283     10281     10284     10286
     10283     10281     10284     10287     10285     10284     10287     10288
     10285     10284     10287     10289     10285     10284     10287     10290
     10286     10284     10287     10288     10286     10284     10287     10289
     10286     10284     10287     10290     10291     10294     10297     10298
     10291     10294     10297     10299     10291     10294     10297     10300
     10292     10291     10294     10295     10292     10291     10294     10296
     10292     10291     10294     10297     10293     10291     10294     10295
     10293     10291     10294     10296     10293     10291     10294     10297
     10294     10297     10300     10301     10294     10297     10300     10302
     10294     10297     10300     10303     10295     10294     10297     10298
     10295     10294     10297     10299     10295     10294     10297     10300
     10296     10294     10297     10298     10296     10294     10297     10299
     10296     10294     10297     10300     10297     10300     10303     10304
     10297     10300     10303     10305     10297     10300     10303     10306
     10298     10297     10300     10301     10298     10297     10300     10302
     10298     10297     10300     10303     10299     10297     10300     10301
     10299     10297     10300     10302     10299     10297     10300     10303
     10300     10303     10306     10307     10300     10303     10306     10308
     10300     10303     10306     10309     10301     10300     10303     10304
     10301     10300     10303     10305     10301     10300     10303     10306
     10302     10300     10303     10304     10302     10300     10303     10305
     10302     10300     10303     10306     10303     10306     10309     10310
     10303     10306     10309     10311     10303     10306     10309     10312
     10304     10303     10306     10307     10304     10303     10306     10308
     10304     10303     10306     10309     10305     10303     10306     10307
     10305     10303     10306     10308     10305     10303     10306     10309
     10306     10309     10312     10313     10306     10309     10312     10314
     10306     10309     10312     10315     10307     10306     10309     10310
     10307     10306     10309     10311     10307     10306     10309     10312
     10308     10306     10309     10310     10308     10306     10309     10311
     10308     10306     10309     10312     10309     10312     10315     10316
     10309     10312     10315     10317     10309     10312     10315     10318
     10310     10309     10312     10313     10310     10309     10312     10314
     10310     10309     10312     10315     10311     10309     10312     10313
     10311     10309     10312     10314     10311     10309     10312     10315
     10312     10315     10318     10319     10312     10315     10318     10320
     10312     10315     10318     10321     10313     10312     10315     10316
     10313     10312     10315     10317     10313     10312     10315     10318
     10314     10312     10315     10316     10314     10312     10315     10317
     10314     10312     10315     10318     10315     10318     10321     10322
     10315     10318     10321     10323     10315     10318     10321     10324
     10316     10315     10318     10319     10316     10315     10318     10320
     10316     10315     10318     10321     10317     10315     10318     10319
     10317     10315     10318     10320     10317     10315     10318     10321
     10318     10321     10324     10325     10318     10321     10324     10326
     10318     10321     10324     10327     10319     10318     10321     10322
     10319     10318     10321     10323     10319     10318     10321     10324
     10320     10318     10321     10322     10320     10318     10321     10323
     10320     10318     10321     10324     10321     10324     10327     10328
     10321     10324     10327     10329     10321     10324     10327     10330
     10322     10321     10324     10325     10322     10321     10324     10326
     10322     10321     10324     10327     10323     10321     10324     10325
     10323     10321     10324     10326     10323     10321     10324     10327
     10324     10327     10330     10331     10324     10327     10330     10332
     10324     10327     10330     10333     10325     10324     10327     10328
     10325     10324     10327     10329     10325     10324     10327     10330
     10326     10324     10327     10328     10326     10324     10327     10329
     10326     10324     10327     10330     10328     10327     10330     10331
     10328     10327     10330     10332     10328     10327     10330     10333
     10329     10327     10330     10331     10329     10327     10330     10332
     10329     10327     10330     10333     10334     10338     10340     10341
     10334     10338     10340     10342     10334     10338     10343     10344
     10334     10338     10343     10345     10334     10338     10343     10349
     10335     10334     10338     10339     10335     10334     10338     10340
     10335     10334     10338     10343     10336     10334     10338     10339
     10336     10334     10338     10340     10336     10334     10338     10343
     10337     10334     10338     10339     10337     10334     10338     10340
     10337     10334     10338     10343     10338     10343     10349     10346
     10339     10338     10340     10341     10339     10338     10340     10342
     10339     10338     10343     10344     10339     10338     10343     10345
     10339     10338     10343     10349     10340     10338     10343     10344
     10340     10338     10343     10345     10340     10338     10343     10349
     10341     10340     10338     10343     10342     10340     10338     10343
     10343     10349     10346     10347     10343     10349     10346     10348
     10343     10349     10346     10350     10344     10343     10349     10346
     10345     10343     10349     10346     10346     10350     10351     10352
     10346     10350     10351     10353     10346     10350     10351     10354
     10347     10346     10350     10351     10348     10346     10350     10351
     10349     10346     10350     10351     10350     10351     10354     10355
     10350     10351     10354     10356     10350     10351     10354     10362
     10351     10354     10356     10357     10351     10354     10362     10363
     10351     10354     10362     10364     10351     10354     10362     10365
     10352     10351     10354     10355     10352     10351     10354     10356
     10352     10351     10354     10362     10353     10351     10354     10355
     10353     10351     10354     10356     10353     10351     10354     10362
     10354     10356     10357     10358     10354     10356     10357     10359
     10354     10362     10365     10366     10355     10354     10356     10357
     10355     10354     10362     10363     10355     10354     10362     10364
     10355     10354     10362     10365     10356     10354     10362     10363
     10356     10354     10362     10364     10356     10354     10362     10365
     10356     10357     10359     10360     10356     10357     10359     10361
     10356     10357     10359     10371     10357     10356     10354     10362
     10357     10359     10371     10372     10357     10359     10371     10373
     10357     10359     10371     10374     10358     10357     10359     10360
     10358     10357     10359     10361     10358     10357     10359     10371
     10359     10371     10374     10375     10359     10371     10374     10376
     10359     10371     10374     10377     10360     10359     10371     10372
     10360     10359     10371     10373     10360     10359     10371     10374
     10361     10359     10371     10372     10361     10359     10371     10373
     10361     10359     10371     10374     10362     10365     10366     10367
     10362     10365     10366     10368     10363     10362     10365     10366
     10364     10362     10365     10366     10365     10366     10368     10369
     10365     10366     10368     10370     10365     10366     10368     10418
     10366     10368     10418     10419     10366     10368     10418     10420
     10366     10368     10418     10421     10367     10366     10368     10369
     10367     10366     10368     10370     10367     10366     10368     10418
     10368     10418     10421     10422     10368     10418     10421     10423
     10368     10418     10421     10424     10369     10368     10418     10419
     10369     10368     10418     10420     10369     10368     10418     10421
     10370     10368     10418     10419     10370     10368     10418     10420
     10370     10368     10418     10421     10371     10374     10377     10378
     10371     10374     10377     10379     10371     10374     10377     10380
     10372     10371     10374     10375     10372     10371     10374     10376
     10372     10371     10374     10377     10373     10371     10374     10375
     10373     10371     10374     10376     10373     10371     10374     10377
     10374     10377     10380     10381     10374     10377     10380     10382
     10374     10377     10380     10383     10375     10374     10377     10378
     10375     10374     10377     10379     10375     10374     10377     10380
     10376     10374     10377     10378     10376     10374     10377     10379
     10376     10374     10377     10380     10377     10380     10383     10384
     10377     10380     10383     10385     10377     10380     10383     10386
     10378     10377     10380     10381     10378     10377     10380     10382
     10378     10377     10380     10383     10379     10377     10380     10381
     10379     10377     10380     10382     10379     10377     10380     10383
     10380     10383     10386     10387     10380     10383     10386     10388
     10380     10383     10386     10389     10381     10380     10383     10384
     10381     10380     10383     10385     10381     10380     10383     10386
     10382     10380     10383     10384     10382     10380     10383     10385
     10382     10380     10383     10386     10383     10386     10389     10390
     10383     10386     10389     10391     10384     10383     10386     10387
     10384     10383     10386     10388     10384     10383     10386     10389
     10385     10383     10386     10387     10385     10383     10386     10388
     10385     10383     10386     10389     10386     10389     10391     10392
     10386     10389     10391     10393     10387     10386     10389     10390
     10387     10386     10389     10391     10388     10386     10389     10390
     10388     10386     10389     10391     10389     10391     10393     10394
     10389     10391     10393     10395     10389     10391     10393     10396
     10390     10389     10391     10392     10390     10389     10391     10393
     10391     10393     10396     10397     10391     10393     10396     10398
     10391     10393     10396     10399     10392     10391     10393     10394
     10392     10391     10393     10395     10392     10391     10393     10396
     10393     10396     10399     10400     10393     10396     10399     10401
     10393     10396     10399     10402     10394     10393     10396     10397
     10394     10393     10396     10398     10394     10393     10396     10399
     10395     10393     10396     10397     10395     10393     10396     10398
     10395     10393     10396     10399     10396     10399     10402     10403
     10396     10399     10402     10404     10396     10399     10402     10405
     10397     10396     10399     10400     10397     10396     10399     10401
     10397     10396     10399     10402     10398     10396     10399     10400
     10398     10396     10399     10401     10398     10396     10399     10402
     10399     10402     10405     10406     10399     10402     10405     10407
     10399     10402     10405     10408     10400     10399     10402     10403
     10400     10399     10402     10404     10400     10399     10402     10405
     10401     10399     10402     10403     10401     10399     10402     10404
     10401     10399     10402     10405     10402     10405     10408     10409
     10402     10405     10408     10410     10402     10405     10408     10411
     10403     10402     10405     10406     10403     10402     10405     10407
     10403     10402     10405     10408     10404     10402     10405     10406
     10404     10402     10405     10407     10404     10402     10405     10408
     10405     10408     10411     10412     10405     10408     10411     10413
     10405     10408     10411     10414     10406     10405     10408     10409
     10406     10405     10408     10410     10406     10405     10408     10411
     10407     10405     10408     10409     10407     10405     10408     10410
     10407     10405     10408     10411     10408     10411     10414     10415
     10408     10411     10414     10416     10408     10411     10414     10417
     10409     10408     10411     10412     10409     10408     10411     10413
     10409     10408     10411     10414     10410     10408     10411     10412
     10410     10408     10411     10413     10410     10408     10411     10414
     10412     10411     10414     10415     10412     10411     10414     10416
     10412     10411     10414     10417     10413     10411     10414     10415
     10413     10411     10414     10416     10413     10411     10414     10417
     10418     10421     10424     10425     10418     10421     10424     10426
     10418     10421     10424     10427     10419     10418     10421     10422
     10419     10418     10421     10423     10419     10418     10421     10424
     10420     10418     10421     10422     10420     10418     10421     10423
     10420     10418     10421     10424     10421     10424     10427     10428
     10421     10424     10427     10429     10421     10424     10427     10430
     10422     10421     10424     10425     10422     10421     10424     10426
     10422     10421     10424     10427     10423     10421     10424     10425
     10423     10421     10424     10426     10423     10421     10424     10427
     10424     10427     10430     10431     10424     10427     10430     10432
     10424     10427     10430     10433     10425     10424     10427     10428
     10425     10424     10427     10429     10425     10424     10427     10430
     10426     10424     10427     10428     10426     10424     10427     10429
     10426     10424     10427     10430     10427     10430     10433     10434
     10427     10430     10433     10435     10427     10430     10433     10436
     10428     10427     10430     10431     10428     10427     10430     10432
     10428     10427     10430     10433     10429     10427     10430     10431
     10429     10427     10430     10432     10429     10427     10430     10433
     10430     10433     10436     10437     10430     10433     10436     10438
     10430     10433     10436     10439     10431     10430     10433     10434
     10431     10430     10433     10435     10431     10430     10433     10436
     10432     10430     10433     10434     10432     10430     10433     10435
     10432     10430     10433     10436     10433     10436     10439     10440
     10433     10436     10439     10441     10433     10436     10439     10442
     10434     10433     10436     10437     10434     10433     10436     10438
     10434     10433     10436     10439     10435     10433     10436     10437
     10435     10433     10436     10438     10435     10433     10436     10439
     10436     10439     10442     10443     10436     10439     10442     10444
     10436     10439     10442     10445     10437     10436     10439     10440
     10437     10436     10439     10441     10437     10436     10439     10442
     10438     10436     10439     10440     10438     10436     10439     10441
     10438     10436     10439     10442     10439     10442     10445     10446
     10439     10442     10445     10447     10439     10442     10445     10448
     10440     10439     10442     10443     10440     10439     10442     10444
     10440     10439     10442     10445     10441     10439     10442     10443
     10441     10439     10442     10444     10441     10439     10442     10445
     10442     10445     10448     10449     10442     10445     10448     10450
     10442     10445     10448     10451     10443     10442     10445     10446
     10443     10442     10445     10447     10443     10442     10445     10448
     10444     10442     10445     10446     10444     10442     10445     10447
     10444     10442     10445     10448     10445     10448     10451     10452
     10445     10448     10451     10453     10445     10448     10451     10454
     10446     10445     10448     10449     10446     10445     10448     10450
     10446     10445     10448     10451     10447     10445     10448     10449
     10447     10445     10448     10450     10447     10445     10448     10451
     10448     10451     10454     10455     10448     10451     10454     10456
     10448     10451     10454     10457     10449     10448     10451     10452
     10449     10448     10451     10453     10449     10448     10451     10454
     10450     10448     10451     10452     10450     10448     10451     10453
     10450     10448     10451     10454     10451     10454     10457     10458
     10451     10454     10457     10459     10451     10454     10457     10460
     10452     10451     10454     10455     10452     10451     10454     10456
     10452     10451     10454     10457     10453     10451     10454     10455
     10453     10451     10454     10456     10453     10451     10454     10457
     10455     10454     10457     10458     10455     10454     10457     10459
     10455     10454     10457     10460     10456     10454     10457     10458
     10456     10454     10457     10459     10456     10454     10457     10460
     10461     10462     10477     10478     10461     10462     10477     10479
     10461     10462     10477     10483     10462     10461     10465     10466
     10462     10461     10465     10467     10462     10461     10465     10468
     10462     10461     10469     10470     10462     10461     10469     10471
     10462     10461     10469     10472     10462     10461     10473     10474
     10462     10461     10473     10475     10462     10461     10473     10476
     10462     10477     10483     10480     10463     10462     10461     10465
     10463     10462     10461     10469     10463     10462     10461     10473
     10463     10462     10477     10478     10463     10462     10477     10479
     10463     10462     10477     10483     10464     10462     10461     10465
     10464     10462     10461     10469     10464     10462     10461     10473
     10464     10462     10477     10478     10464     10462     10477     10479
     10464     10462     10477     10483     10465     10461     10462     10477
     10465     10461     10469     10470     10465     10461     10469     10471
     10465     10461     10469     10472     10465     10461     10473     10474
     10465     10461     10473     10475     10465     10461     10473     10476
     10466     10465     10461     10469     10466     10465     10461     10473
     10467     10465     10461     10469     10467     10465     10461     10473
     10468     10465     10461     10469     10468     10465     10461     10473
     10469     10461     10462     10477     10469     10461     10473     10474
     10469     10461     10473     10475     10469     10461     10473     10476
     10470     10469     10461     10473     10471     10469     10461     10473
     10472     10469     10461     10473     10473     10461     10462     10477
     10477     10483     10480     10481     10477     10483     10480     10482
     10477     10483     10480     10484     10478     10477     10483     10480
     10479     10477     10483     10480     10480     10484     10485     10486
     10480     10484     10485     10487     10480     10484     10485     10488
     10481     10480     10484     10485     10482     10480     10484     10485
     10483     10480     10484     10485     10484     10485     10488     10489
     10484     10485     10488     10490     10484     10485     10488     10496
     10485     10488     10490     10491     10485     10488     10496     10497
     10485     10488     10496     10498     10485     10488     10496     10499
     10486     10485     10488     10489     10486     10485     10488     10490
     10486     10485     10488     10496     10487     10485     10488     10489
     10487     10485     10488     10490     10487     10485     10488     10496
     10488     10490     10491     10492     10488     10490     10491     10493
     10488     10496     10499     10500     10489     10488     10490     10491
     10489     10488     10496     10497     10489     10488     10496     10498
     10489     10488     10496     10499     10490     10488     10496     10497
     10490     10488     10496     10498     10490     10488     10496     10499
     10490     10491     10493     10494     10490     10491     10493     10495
     10490     10491     10493     10505     10491     10490     10488     10496
     10491     10493     10505     10506     10491     10493     10505     10507
     10491     10493     10505     10508     10492     10491     10493     10494
     10492     10491     10493     10495     10492     10491     10493     10505
     10493     10505     10508     10509     10493     10505     10508     10510
     10493     10505     10508     10511     10494     10493     10505     10506
     10494     10493     10505     10507     10494     10493     10505     10508
     10495     10493     10505     10506     10495     10493     10505     10507
     10495     10493     10505     10508     10496     10499     10500     10501
     10496     10499     10500     10502     10497     10496     10499     10500
     10498     10496     10499     10500     10499     10500     10502     10503
     10499     10500     10502     10504     10499     10500     10502     10552
     10500     10502     10552     10553     10500     10502     10552     10554
     10500     10502     10552     10555     10501     10500     10502     10503
     10501     10500     10502     10504     10501     10500     10502     10552
     10502     10552     10555     10556     10502     10552     10555     10557
     10502     10552     10555     10558     10503     10502     10552     10553
     10503     10502     10552     10554     10503     10502     10552     10555
     10504     10502     10552     10553     10504     10502     10552     10554
     10504     10502     10552     10555     10505     10508     10511     10512
     10505     10508     10511     10513     10505     10508     10511     10514
     10506     10505     10508     10509     10506     10505     10508     10510
     10506     10505     10508     10511     10507     10505     10508     10509
     10507     10505     10508     10510     10507     10505     10508     10511
     10508     10511     10514     10515     10508     10511     10514     10516
     10508     10511     10514     10517     10509     10508     10511     10512
     10509     10508     10511     10513     10509     10508     10511     10514
     10510     10508     10511     10512     10510     10508     10511     10513
     10510     10508     10511     10514     10511     10514     10517     10518
     10511     10514     10517     10519     10511     10514     10517     10520
     10512     10511     10514     10515     10512     10511     10514     10516
     10512     10511     10514     10517     10513     10511     10514     10515
     10513     10511     10514     10516     10513     10511     10514     10517
     10514     10517     10520     10521     10514     10517     10520     10522
     10514     10517     10520     10523     10515     10514     10517     10518
     10515     10514     10517     10519     10515     10514     10517     10520
     10516     10514     10517     10518     10516     10514     10517     10519
     10516     10514     10517     10520     10517     10520     10523     10524
     10517     10520     10523     10525     10518     10517     10520     10521
     10518     10517     10520     10522     10518     10517     10520     10523
     10519     10517     10520     10521     10519     10517     10520     10522
     10519     10517     10520     10523     10520     10523     10525     10526
     10520     10523     10525     10527     10521     10520     10523     10524
     10521     10520     10523     10525     10522     10520     10523     10524
     10522     10520     10523     10525     10523     10525     10527     10528
     10523     10525     10527     10529     10523     10525     10527     10530
     10524     10523     10525     10526     10524     10523     10525     10527
     10525     10527     10530     10531     10525     10527     10530     10532
     10525     10527     10530     10533     10526     10525     10527     10528
     10526     10525     10527     10529     10526     10525     10527     10530
     10527     10530     10533     10534     10527     10530     10533     10535
     10527     10530     10533     10536     10528     10527     10530     10531
     10528     10527     10530     10532     10528     10527     10530     10533
     10529     10527     10530     10531     10529     10527     10530     10532
     10529     10527     10530     10533     10530     10533     10536     10537
     10530     10533     10536     10538     10530     10533     10536     10539
     10531     10530     10533     10534     10531     10530     10533     10535
     10531     10530     10533     10536     10532     10530     10533     10534
     10532     10530     10533     10535     10532     10530     10533     10536
     10533     10536     10539     10540     10533     10536     10539     10541
     10533     10536     10539     10542     10534     10533     10536     10537
     10534     10533     10536     10538     10534     10533     10536     10539
     10535     10533     10536     10537     10535     10533     10536     10538
     10535     10533     10536     10539     10536     10539     10542     10543
     10536     10539     10542     10544     10536     10539     10542     10545
     10537     10536     10539     10540     10537     10536     10539     10541
     10537     10536     10539     10542     10538     10536     10539     10540
     10538     10536     10539     10541     10538     10536     10539     10542
     10539     10542     10545     10546     10539     10542     10545     10547
     10539     10542     10545     10548     10540     10539     10542     10543
     10540     10539     10542     10544     10540     10539     10542     10545
     10541     10539     10542     10543     10541     10539     10542     10544
     10541     10539     10542     10545     10542     10545     10548     10549
     10542     10545     10548     10550     10542     10545     10548     10551
     10543     10542     10545     10546     10543     10542     10545     10547
     10543     10542     10545     10548     10544     10542     10545     10546
     10544     10542     10545     10547     10544     10542     10545     10548
     10546     10545     10548     10549     10546     10545     10548     10550
     10546     10545     10548     10551     10547     10545     10548     10549
     10547     10545     10548     10550     10547     10545     10548     10551
     10552     10555     10558     10559     10552     10555     10558     10560
     10552     10555     10558     10561     10553     10552     10555     10556
     10553     10552     10555     10557     10553     10552     10555     10558
     10554     10552     10555     10556     10554     10552     10555     10557
     10554     10552     10555     10558     10555     10558     10561     10562
     10555     10558     10561     10563     10555     10558     10561     10564
     10556     10555     10558     10559     10556     10555     10558     10560
     10556     10555     10558     10561     10557     10555     10558     10559
     10557     10555     10558     10560     10557     10555     10558     10561
     10558     10561     10564     10565     10558     10561     10564     10566
     10558     10561     10564     10567     10559     10558     10561     10562
     10559     10558     10561     10563     10559     10558     10561     10564
     10560     10558     10561     10562     10560     10558     10561     10563
     10560     10558     10561     10564     10561     10564     10567     10568
     10561     10564     10567     10569     10561     10564     10567     10570
     10562     10561     10564     10565     10562     10561     10564     10566
     10562     10561     10564     10567     10563     10561     10564     10565
     10563     10561     10564     10566     10563     10561     10564     10567
     10564     10567     10570     10571     10564     10567     10570     10572
     10564     10567     10570     10573     10565     10564     10567     10568
     10565     10564     10567     10569     10565     10564     10567     10570
     10566     10564     10567     10568     10566     10564     10567     10569
     10566     10564     10567     10570     10567     10570     10573     10574
     10567     10570     10573     10575     10567     10570     10573     10576
     10568     10567     10570     10571     10568     10567     10570     10572
     10568     10567     10570     10573     10569     10567     10570     10571
     10569     10567     10570     10572     10569     10567     10570     10573
     10570     10573     10576     10577     10570     10573     10576     10578
     10570     10573     10576     10579     10571     10570     10573     10574
     10571     10570     10573     10575     10571     10570     10573     10576
     10572     10570     10573     10574     10572     10570     10573     10575
     10572     10570     10573     10576     10573     10576     10579     10580
     10573     10576     10579     10581     10573     10576     10579     10582
     10574     10573     10576     10577     10574     10573     10576     10578
     10574     10573     10576     10579     10575     10573     10576     10577
     10575     10573     10576     10578     10575     10573     10576     10579
     10576     10579     10582     10583     10576     10579     10582     10584
     10576     10579     10582     10585     10577     10576     10579     10580
     10577     10576     10579     10581     10577     10576     10579     10582
     10578     10576     10579     10580     10578     10576     10579     10581
     10578     10576     10579     10582     10579     10582     10585     10586
     10579     10582     10585     10587     10579     10582     10585     10588
     10580     10579     10582     10583     10580     10579     10582     10584
     10580     10579     10582     10585     10581     10579     10582     10583
     10581     10579     10582     10584     10581     10579     10582     10585
     10582     10585     10588     10589     10582     10585     10588     10590
     10582     10585     10588     10591     10583     10582     10585     10586
     10583     10582     10585     10587     10583     10582     10585     10588
     10584     10582     10585     10586     10584     10582     10585     10587
     10584     10582     10585     10588     10585     10588     10591     10592
     10585     10588     10591     10593     10585     10588     10591     10594
     10586     10585     10588     10589     10586     10585     10588     10590
     10586     10585     10588     10591     10587     10585     10588     10589
     10587     10585     10588     10590     10587     10585     10588     10591
     10589     10588     10591     10592     10589     10588     10591     10593
     10589     10588     10591     10594     10590     10588     10591     10592
     10590     10588     10591     10593     10590     10588     10591     10594
     10595     10596     10611     10612     10595     10596     10611     10613
     10595     10596     10611     10617     10596     10595     10599     10600
     10596     10595     10599     10601     10596     10595     10599     10602
     10596     10595     10603     10604     10596     10595     10603     10605
     10596     10595     10603     10606     10596     10595     10607     10608
     10596     10595     10607     10609     10596     10595     10607     10610
     10596     10611     10617     10614     10597     10596     10595     10599
     10597     10596     10595     10603     10597     10596     10595     10607
     10597     10596     10611     10612     10597     10596     10611     10613
     10597     10596     10611     10617     10598     10596     10595     10599
     10598     10596     10595     10603     10598     10596     10595     10607
     10598     10596     10611     10612     10598     10596     10611     10613
     10598     10596     10611     10617     10599     10595     10596     10611
     10599     10595     10603     10604     10599     10595     10603     10605
     10599     10595     10603     10606     10599     10595     10607     10608
     10599     10595     10607     10609     10599     10595     10607     10610
     10600     10599     10595     10603     10600     10599     10595     10607
     10601     10599     10595     10603     10601     10599     10595     10607
     10602     10599     10595     10603     10602     10599     10595     10607
     10603     10595     10596     10611     10603     10595     10607     10608
     10603     10595     10607     10609     10603     10595     10607     10610
     10604     10603     10595     10607     10605     10603     10595     10607
     10606     10603     10595     10607     10607     10595     10596     10611
     10611     10617     10614     10615     10611     10617     10614     10616
     10611     10617     10614     10618     10612     10611     10617     10614
     10613     10611     10617     10614     10614     10618     10619     10620
     10614     10618     10619     10621     10614     10618     10619     10622
     10615     10614     10618     10619     10616     10614     10618     10619
     10617     10614     10618     10619     10618     10619     10622     10623
     10618     10619     10622     10624     10618     10619     10622     10630
     10619     10622     10624     10625     10619     10622     10630     10631
     10619     10622     10630     10632     10619     10622     10630     10633
     10620     10619     10622     10623     10620     10619     10622     10624
     10620     10619     10622     10630     10621     10619     10622     10623
     10621     10619     10622     10624     10621     10619     10622     10630
     10622     10624     10625     10626     10622     10624     10625     10627
     10622     10630     10633     10634     10623     10622     10624     10625
     10623     10622     10630     10631     10623     10622     10630     10632
     10623     10622     10630     10633     10624     10622     10630     10631
     10624     10622     10630     10632     10624     10622     10630     10633
     10624     10625     10627     10628     10624     10625     10627     10629
     10624     10625     10627     10639     10625     10624     10622     10630
     10625     10627     10639     10640     10625     10627     10639     10641
     10625     10627     10639     10642     10626     10625     10627     10628
     10626     10625     10627     10629     10626     10625     10627     10639
     10627     10639     10642     10643     10627     10639     10642     10644
     10627     10639     10642     10645     10628     10627     10639     10640
     10628     10627     10639     10641     10628     10627     10639     10642
     10629     10627     10639     10640     10629     10627     10639     10641
     10629     10627     10639     10642     10630     10633     10634     10635
     10630     10633     10634     10636     10631     10630     10633     10634
     10632     10630     10633     10634     10633     10634     10636     10637
     10633     10634     10636     10638     10633     10634     10636     10686
     10634     10636     10686     10687     10634     10636     10686     10688
     10634     10636     10686     10689     10635     10634     10636     10637
     10635     10634     10636     10638     10635     10634     10636     10686
     10636     10686     10689     10690     10636     10686     10689     10691
     10636     10686     10689     10692     10637     10636     10686     10687
     10637     10636     10686     10688     10637     10636     10686     10689
     10638     10636     10686     10687     10638     10636     10686     10688
     10638     10636     10686     10689     10639     10642     10645     10646
     10639     10642     10645     10647     10639     10642     10645     10648
     10640     10639     10642     10643     10640     10639     10642     10644
     10640     10639     10642     10645     10641     10639     10642     10643
     10641     10639     10642     10644     10641     10639     10642     10645
     10642     10645     10648     10649     10642     10645     10648     10650
     10642     10645     10648     10651     10643     10642     10645     10646
     10643     10642     10645     10647     10643     10642     10645     10648
     10644     10642     10645     10646     10644     10642     10645     10647
     10644     10642     10645     10648     10645     10648     10651     10652
     10645     10648     10651     10653     10645     10648     10651     10654
     10646     10645     10648     10649     10646     10645     10648     10650
     10646     10645     10648     10651     10647     10645     10648     10649
     10647     10645     10648     10650     10647     10645     10648     10651
     10648     10651     10654     10655     10648     10651     10654     10656
     10648     10651     10654     10657     10649     10648     10651     10652
     10649     10648     10651     10653     10649     10648     10651     10654
     10650     10648     10651     10652     10650     10648     10651     10653
     10650     10648     10651     10654     10651     10654     10657     10658
     10651     10654     10657     10659     10652     10651     10654     10655
     10652     10651     10654     10656     10652     10651     10654     10657
     10653     10651     10654     10655     10653     10651     10654     10656
     10653     10651     10654     10657     10654     10657     10659     10660
     10654     10657     10659     10661     10655     10654     10657     10658
     10655     10654     10657     10659     10656     10654     10657     10658
     10656     10654     10657     10659     10657     10659     10661     10662
     10657     10659     10661     10663     10657     10659     10661     10664
     10658     10657     10659     10660     10658     10657     10659     10661
     10659     10661     10664     10665     10659     10661     10664     10666
     10659     10661     10664     10667     10660     10659     10661     10662
     10660     10659     10661     10663     10660     10659     10661     10664
     10661     10664     10667     10668     10661     10664     10667     10669
     10661     10664     10667     10670     10662     10661     10664     10665
     10662     10661     10664     10666     10662     10661     10664     10667
     10663     10661     10664     10665     10663     10661     10664     10666
     10663     10661     10664     10667     10664     10667     10670     10671
     10664     10667     10670     10672     10664     10667     10670     10673
     10665     10664     10667     10668     10665     10664     10667     10669
     10665     10664     10667     10670     10666     10664     10667     10668
     10666     10664     10667     10669     10666     10664     10667     10670
     10667     10670     10673     10674     10667     10670     10673     10675
     10667     10670     10673     10676     10668     10667     10670     10671
     10668     10667     10670     10672     10668     10667     10670     10673
     10669     10667     10670     10671     10669     10667     10670     10672
     10669     10667     10670     10673     10670     10673     10676     10677
     10670     10673     10676     10678     10670     10673     10676     10679
     10671     10670     10673     10674     10671     10670     10673     10675
     10671     10670     10673     10676     10672     10670     10673     10674
     10672     10670     10673     10675     10672     10670     10673     10676
     10673     10676     10679     10680     10673     10676     10679     10681
     10673     10676     10679     10682     10674     10673     10676     10677
     10674     10673     10676     10678     10674     10673     10676     10679
     10675     10673     10676     10677     10675     10673     10676     10678
     10675     10673     10676     10679     10676     10679     10682     10683
     10676     10679     10682     10684     10676     10679     10682     10685
     10677     10676     10679     10680     10677     10676     10679     10681
     10677     10676     10679     10682     10678     10676     10679     10680
     10678     10676     10679     10681     10678     10676     10679     10682
     10680     10679     10682     10683     10680     10679     10682     10684
     10680     10679     10682     10685     10681     10679     10682     10683
     10681     10679     10682     10684     10681     10679     10682     10685
     10686     10689     10692     10693     10686     10689     10692     10694
     10686     10689     10692     10695     10687     10686     10689     10690
     10687     10686     10689     10691     10687     10686     10689     10692
     10688     10686     10689     10690     10688     10686     10689     10691
     10688     10686     10689     10692     10689     10692     10695     10696
     10689     10692     10695     10697     10689     10692     10695     10698
     10690     10689     10692     10693     10690     10689     10692     10694
     10690     10689     10692     10695     10691     10689     10692     10693
     10691     10689     10692     10694     10691     10689     10692     10695
     10692     10695     10698     10699     10692     10695     10698     10700
     10692     10695     10698     10701     10693     10692     10695     10696
     10693     10692     10695     10697     10693     10692     10695     10698
     10694     10692     10695     10696     10694     10692     10695     10697
     10694     10692     10695     10698     10695     10698     10701     10702
     10695     10698     10701     10703     10695     10698     10701     10704
     10696     10695     10698     10699     10696     10695     10698     10700
     10696     10695     10698     10701     10697     10695     10698     10699
     10697     10695     10698     10700     10697     10695     10698     10701
     10698     10701     10704     10705     10698     10701     10704     10706
     10698     10701     10704     10707     10699     10698     10701     10702
     10699     10698     10701     10703     10699     10698     10701     10704
     10700     10698     10701     10702     10700     10698     10701     10703
     10700     10698     10701     10704     10701     10704     10707     10708
     10701     10704     10707     10709     10701     10704     10707     10710
     10702     10701     10704     10705     10702     10701     10704     10706
     10702     10701     10704     10707     10703     10701     10704     10705
     10703     10701     10704     10706     10703     10701     10704     10707
     10704     10707     10710     10711     10704     10707     10710     10712
     10704     10707     10710     10713     10705     10704     10707     10708
     10705     10704     10707     10709     10705     10704     10707     10710
     10706     10704     10707     10708     10706     10704     10707     10709
     10706     10704     10707     10710     10707     10710     10713     10714
     10707     10710     10713     10715     10707     10710     10713     10716
     10708     10707     10710     10711     10708     10707     10710     10712
     10708     10707     10710     10713     10709     10707     10710     10711
     10709     10707     10710     10712     10709     10707     10710     10713
     10710     10713     10716     10717     10710     10713     10716     10718
     10710     10713     10716     10719     10711     10710     10713     10714
     10711     10710     10713     10715     10711     10710     10713     10716
     10712     10710     10713     10714     10712     10710     10713     10715
     10712     10710     10713     10716     10713     10716     10719     10720
     10713     10716     10719     10721     10713     10716     10719     10722
     10714     10713     10716     10717     10714     10713     10716     10718
     10714     10713     10716     10719     10715     10713     10716     10717
     10715     10713     10716     10718     10715     10713     10716     10719
     10716     10719     10722     10723     10716     10719     10722     10724
     10716     10719     10722     10725     10717     10716     10719     10720
     10717     10716     10719     10721     10717     10716     10719     10722
     10718     10716     10719     10720     10718     10716     10719     10721
     10718     10716     10719     10722     10719     10722     10725     10726
     10719     10722     10725     10727     10719     10722     10725     10728
     10720     10719     10722     10723     10720     10719     10722     10724
     10720     10719     10722     10725     10721     10719     10722     10723
     10721     10719     10722     10724     10721     10719     10722     10725
     10723     10722     10725     10726     10723     10722     10725     10727
     10723     10722     10725     10728     10724     10722     10725     10726
     10724     10722     10725     10727     10724     10722     10725     10728
     10729     10733     10735     10736     10729     10733     10735     10737
     10729     10733     10738     10739     10729     10733     10738     10740
     10729     10733     10738     10744     10730     10729     10733     10734
     10730     10729     10733     10735     10730     10729     10733     10738
     10731     10729     10733     10734     10731     10729     10733     10735
     10731     10729     10733     10738     10732     10729     10733     10734
     10732     10729     10733     10735     10732     10729     10733     10738
     10733     10738     10744     10741     10734     10733     10735     10736
     10734     10733     10735     10737     10734     10733     10738     10739
     10734     10733     10738     10740     10734     10733     10738     10744
     10735     10733     10738     10739     10735     10733     10738     10740
     10735     10733     10738     10744     10736     10735     10733     10738
     10737     10735     10733     10738     10738     10744     10741     10742
     10738     10744     10741     10743     10738     10744     10741     10745
     10739     10738     10744     10741     10740     10738     10744     10741
     10741     10745     10746     10747     10741     10745     10746     10748
     10741     10745     10746     10749     10742     10741     10745     10746
     10743     10741     10745     10746     10744     10741     10745     10746
     10745     10746     10749     10750     10745     10746     10749     10751
     10745     10746     10749     10757     10746     10749     10751     10752
     10746     10749     10757     10758     10746     10749     10757     10759
     10746     10749     10757     10760     10747     10746     10749     10750
     10747     10746     10749     10751     10747     10746     10749     10757
     10748     10746     10749     10750     10748     10746     10749     10751
     10748     10746     10749     10757     10749     10751     10752     10753
     10749     10751     10752     10754     10749     10757     10760     10761
     10750     10749     10751     10752     10750     10749     10757     10758
     10750     10749     10757     10759     10750     10749     10757     10760
     10751     10749     10757     10758     10751     10749     10757     10759
     10751     10749     10757     10760     10751     10752     10754     10755
     10751     10752     10754     10756     10751     10752     10754     10766
     10752     10751     10749     10757     10752     10754     10766     10767
     10752     10754     10766     10768     10752     10754     10766     10769
     10753     10752     10754     10755     10753     10752     10754     10756
     10753     10752     10754     10766     10754     10766     10769     10770
     10754     10766     10769     10771     10754     10766     10769     10772
     10755     10754     10766     10767     10755     10754     10766     10768
     10755     10754     10766     10769     10756     10754     10766     10767
     10756     10754     10766     10768     10756     10754     10766     10769
     10757     10760     10761     10762     10757     10760     10761     10763
     10758     10757     10760     10761     10759     10757     10760     10761
     10760     10761     10763     10764     10760     10761     10763     10765
     10760     10761     10763     10813     10761     10763     10813     10814
     10761     10763     10813     10815     10761     10763     10813     10816
     10762     10761     10763     10764     10762     10761     10763     10765
     10762     10761     10763     10813     10763     10813     10816     10817
     10763     10813     10816     10818     10763     10813     10816     10819
     10764     10763     10813     10814     10764     10763     10813     10815
     10764     10763     10813     10816     10765     10763     10813     10814
     10765     10763     10813     10815     10765     10763     10813     10816
     10766     10769     10772     10773     10766     10769     10772     10774
     10766     10769     10772     10775     10767     10766     10769     10770
     10767     10766     10769     10771     10767     10766     10769     10772
     10768     10766     10769     10770     10768     10766     10769     10771
     10768     10766     10769     10772     10769     10772     10775     10776
     10769     10772     10775     10777     10769     10772     10775     10778
     10770     10769     10772     10773     10770     10769     10772     10774
     10770     10769     10772     10775     10771     10769     10772     10773
     10771     10769     10772     10774     10771     10769     10772     10775
     10772     10775     10778     10779     10772     10775     10778     10780
     10772     10775     10778     10781     10773     10772     10775     10776
     10773     10772     10775     10777     10773     10772     10775     10778
     10774     10772     10775     10776     10774     10772     10775     10777
     10774     10772     10775     10778     10775     10778     10781     10782
     10775     10778     10781     10783     10775     10778     10781     10784
     10776     10775     10778     10779     10776     10775     10778     10780
     10776     10775     10778     10781     10777     10775     10778     10779
     10777     10775     10778     10780     10777     10775     10778     10781
     10778     10781     10784     10785     10778     10781     10784     10786
     10779     10778     10781     10782     10779     10778     10781     10783
     10779     10778     10781     10784     10780     10778     10781     10782
     10780     10778     10781     10783     10780     10778     10781     10784
     10781     10784     10786     10787     10781     10784     10786     10788
     10782     10781     10784     10785     10782     10781     10784     10786
     10783     10781     10784     10785     10783     10781     10784     10786
     10784     10786     10788     10789     10784     10786     10788     10790
     10784     10786     10788     10791     10785     10784     10786     10787
     10785     10784     10786     10788     10786     10788     10791     10792
     10786     10788     10791     10793     10786     10788     10791     10794
     10787     10786     10788     10789     10787     10786     10788     10790
     10787     10786     10788     10791     10788     10791     10794     10795
     10788     10791     10794     10796     10788     10791     10794     10797
     10789     10788     10791     10792     10789     10788     10791     10793
     10789     10788     10791     10794     10790     10788     10791     10792
     10790     10788     10791     10793     10790     10788     10791     10794
     10791     10794     10797     10798     10791     10794     10797     10799
     10791     10794     10797     10800     10792     10791     10794     10795
     10792     10791     10794     10796     10792     10791     10794     10797
     10793     10791     10794     10795     10793     10791     10794     10796
     10793     10791     10794     10797     10794     10797     10800     10801
     10794     10797     10800     10802     10794     10797     10800     10803
     10795     10794     10797     10798     10795     10794     10797     10799
     10795     10794     10797     10800     10796     10794     10797     10798
     10796     10794     10797     10799     10796     10794     10797     10800
     10797     10800     10803     10804     10797     10800     10803     10805
     10797     10800     10803     10806     10798     10797     10800     10801
     10798     10797     10800     10802     10798     10797     10800     10803
     10799     10797     10800     10801     10799     10797     10800     10802
     10799     10797     10800     10803     10800     10803     10806     10807
     10800     10803     10806     10808     10800     10803     10806     10809
     10801     10800     10803     10804     10801     10800     10803     10805
     10801     10800     10803     10806     10802     10800     10803     10804
     10802     10800     10803     10805     10802     10800     10803     10806
     10803     10806     10809     10810     10803     10806     10809     10811
     10803     10806     10809     10812     10804     10803     10806     10807
     10804     10803     10806     10808     10804     10803     10806     10809
     10805     10803     10806     10807     10805     10803     10806     10808
     10805     10803     10806     10809     10807     10806     10809     10810
     10807     10806     10809     10811     10807     10806     10809     10812
     10808     10806     10809     10810     10808     10806     10809     10811
     10808     10806     10809     10812     10813     10816     10819     10820
     10813     10816     10819     10821     10813     10816     10819     10822
     10814     10813     10816     10817     10814     10813     10816     10818
     10814     10813     10816     10819     10815     10813     10816     10817
     10815     10813     10816     10818     10815     10813     10816     10819
     10816     10819     10822     10823     10816     10819     10822     10824
     10816     10819     10822     10825     10817     10816     10819     10820
     10817     10816     10819     10821     10817     10816     10819     10822
     10818     10816     10819     10820     10818     10816     10819     10821
     10818     10816     10819     10822     10819     10822     10825     10826
     10819     10822     10825     10827     10819     10822     10825     10828
     10820     10819     10822     10823     10820     10819     10822     10824
     10820     10819     10822     10825     10821     10819     10822     10823
     10821     10819     10822     10824     10821     10819     10822     10825
     10822     10825     10828     10829     10822     10825     10828     10830
     10822     10825     10828     10831     10823     10822     10825     10826
     10823     10822     10825     10827     10823     10822     10825     10828
     10824     10822     10825     10826     10824     10822     10825     10827
     10824     10822     10825     10828     10825     10828     10831     10832
     10825     10828     10831     10833     10825     10828     10831     10834
     10826     10825     10828     10829     10826     10825     10828     10830
     10826     10825     10828     10831     10827     10825     10828     10829
     10827     10825     10828     10830     10827     10825     10828     10831
     10828     10831     10834     10835     10828     10831     10834     10836
     10828     10831     10834     10837     10829     10828     10831     10832
     10829     10828     10831     10833     10829     10828     10831     10834
     10830     10828     10831     10832     10830     10828     10831     10833
     10830     10828     10831     10834     10831     10834     10837     10838
     10831     10834     10837     10839     10831     10834     10837     10840
     10832     10831     10834     10835     10832     10831     10834     10836
     10832     10831     10834     10837     10833     10831     10834     10835
     10833     10831     10834     10836     10833     10831     10834     10837
     10834     10837     10840     10841     10834     10837     10840     10842
     10834     10837     10840     10843     10835     10834     10837     10838
     10835     10834     10837     10839     10835     10834     10837     10840
     10836     10834     10837     10838     10836     10834     10837     10839
     10836     10834     10837     10840     10837     10840     10843     10844
     10837     10840     10843     10845     10837     10840     10843     10846
     10838     10837     10840     10841     10838     10837     10840     10842
     10838     10837     10840     10843     10839     10837     10840     10841
     10839     10837     10840     10842     10839     10837     10840     10843
     10840     10843     10846     10847     10840     10843     10846     10848
     10840     10843     10846     10849     10841     10840     10843     10844
     10841     10840     10843     10845     10841     10840     10843     10846
     10842     10840     10843     10844     10842     10840     10843     10845
     10842     10840     10843     10846     10843     10846     10849     10850
     10843     10846     10849     10851     10843     10846     10849     10852
     10844     10843     10846     10847     10844     10843     10846     10848
     10844     10843     10846     10849     10845     10843     10846     10847
     10845     10843     10846     10848     10845     10843     10846     10849
     10846     10849     10852     10853     10846     10849     10852     10854
     10846     10849     10852     10855     10847     10846     10849     10850
     10847     10846     10849     10851     10847     10846     10849     10852
     10848     10846     10849     10850     10848     10846     10849     10851
     10848     10846     10849     10852     10850     10849     10852     10853
     10850     10849     10852     10854     10850     10849     10852     10855
     10851     10849     10852     10853     10851     10849     10852     10854
     10851     10849     10852     10855     10856     10857     10872     10873
     10856     10857     10872     10874     10856     10857     10872     10878
     10857     10856     10860     10861     10857     10856     10860     10862
     10857     10856     10860     10863     10857     10856     10864     10865
     10857     10856     10864     10866     10857     10856     10864     10867
     10857     10856     10868     10869     10857     10856     10868     10870
     10857     10856     10868     10871     10857     10872     10878     10875
     10858     10857     10856     10860     10858     10857     10856     10864
     10858     10857     10856     10868     10858     10857     10872     10873
     10858     10857     10872     10874     10858     10857     10872     10878
     10859     10857     10856     10860     10859     10857     10856     10864
     10859     10857     10856     10868     10859     10857     10872     10873
     10859     10857     10872     10874     10859     10857     10872     10878
     10860     10856     10857     10872     10860     10856     10864     10865
     10860     10856     10864     10866     10860     10856     10864     10867
     10860     10856     10868     10869     10860     10856     10868     10870
     10860     10856     10868     10871     10861     10860     10856     10864
     10861     10860     10856     10868     10862     10860     10856     10864
     10862     10860     10856     10868     10863     10860     10856     10864
     10863     10860     10856     10868     10864     10856     10857     10872
     10864     10856     10868     10869     10864     10856     10868     10870
     10864     10856     10868     10871     10865     10864     10856     10868
     10866     10864     10856     10868     10867     10864     10856     10868
     10868     10856     10857     10872     10872     10878     10875     10876
     10872     10878     10875     10877     10872     10878     10875     10879
     10873     10872     10878     10875     10874     10872     10878     10875
     10875     10879     10880     10881     10875     10879     10880     10882
     10875     10879     10880     10883     10876     10875     10879     10880
     10877     10875     10879     10880     10878     10875     10879     10880
     10879     10880     10883     10884     10879     10880     10883     10885
     10879     10880     10883     10891     10880     10883     10885     10886
     10880     10883     10891     10892     10880     10883     10891     10893
     10880     10883     10891     10894     10881     10880     10883     10884
     10881     10880     10883     10885     10881     10880     10883     10891
     10882     10880     10883     10884     10882     10880     10883     10885
     10882     10880     10883     10891     10883     10885     10886     10887
     10883     10885     10886     10888     10883     10891     10894     10895
     10884     10883     10885     10886     10884     10883     10891     10892
     10884     10883     10891     10893     10884     10883     10891     10894
     10885     10883     10891     10892     10885     10883     10891     10893
     10885     10883     10891     10894     10885     10886     10888     10889
     10885     10886     10888     10890     10885     10886     10888     10900
     10886     10885     10883     10891     10886     10888     10900     10901
     10886     10888     10900     10902     10886     10888     10900     10903
     10887     10886     10888     10889     10887     10886     10888     10890
     10887     10886     10888     10900     10888     10900     10903     10904
     10888     10900     10903     10905     10888     10900     10903     10906
     10889     10888     10900     10901     10889     10888     10900     10902
     10889     10888     10900     10903     10890     10888     10900     10901
     10890     10888     10900     10902     10890     10888     10900     10903
     10891     10894     10895     10896     10891     10894     10895     10897
     10892     10891     10894     10895     10893     10891     10894     10895
     10894     10895     10897     10898     10894     10895     10897     10899
     10894     10895     10897     10947     10895     10897     10947     10948
     10895     10897     10947     10949     10895     10897     10947     10950
     10896     10895     10897     10898     10896     10895     10897     10899
     10896     10895     10897     10947     10897     10947     10950     10951
     10897     10947     10950     10952     10897     10947     10950     10953
     10898     10897     10947     10948     10898     10897     10947     10949
     10898     10897     10947     10950     10899     10897     10947     10948
     10899     10897     10947     10949     10899     10897     10947     10950
     10900     10903     10906     10907     10900     10903     10906     10908
     10900     10903     10906     10909     10901     10900     10903     10904
     10901     10900     10903     10905     10901     10900     10903     10906
     10902     10900     10903     10904     10902     10900     10903     10905
     10902     10900     10903     10906     10903     10906     10909     10910
     10903     10906     10909     10911     10903     10906     10909     10912
     10904     10903     10906     10907     10904     10903     10906     10908
     10904     10903     10906     10909     10905     10903     10906     10907
     10905     10903     10906     10908     10905     10903     10906     10909
     10906     10909     10912     10913     10906     10909     10912     10914
     10906     10909     10912     10915     10907     10906     10909     10910
     10907     10906     10909     10911     10907     10906     10909     10912
     10908     10906     10909     10910     10908     10906     10909     10911
     10908     10906     10909     10912     10909     10912     10915     10916
     10909     10912     10915     10917     10909     10912     10915     10918
     10910     10909     10912     10913     10910     10909     10912     10914
     10910     10909     10912     10915     10911     10909     10912     10913
     10911     10909     10912     10914     10911     10909     10912     10915
     10912     10915     10918     10919     10912     10915     10918     10920
     10913     10912     10915     10916     10913     10912     10915     10917
     10913     10912     10915     10918     10914     10912     10915     10916
     10914     10912     10915     10917     10914     10912     10915     10918
     10915     10918     10920     10921     10915     10918     10920     10922
     10916     10915     10918     10919     10916     10915     10918     10920
     10917     10915     10918     10919     10917     10915     10918     10920
     10918     10920     10922     10923     10918     10920     10922     10924
     10918     10920     10922     10925     10919     10918     10920     10921
     10919     10918     10920     10922     10920     10922     10925     10926
     10920     10922     10925     10927     10920     10922     10925     10928
     10921     10920     10922     10923     10921     10920     10922     10924
     10921     10920     10922     10925     10922     10925     10928     10929
     10922     10925     10928     10930     10922     10925     10928     10931
     10923     10922     10925     10926     10923     10922     10925     10927
     10923     10922     10925     10928     10924     10922     10925     10926
     10924     10922     10925     10927     10924     10922     10925     10928
     10925     10928     10931     10932     10925     10928     10931     10933
     10925     10928     10931     10934     10926     10925     10928     10929
     10926     10925     10928     10930     10926     10925     10928     10931
     10927     10925     10928     10929     10927     10925     10928     10930
     10927     10925     10928     10931     10928     10931     10934     10935
     10928     10931     10934     10936     10928     10931     10934     10937
     10929     10928     10931     10932     10929     10928     10931     10933
     10929     10928     10931     10934     10930     10928     10931     10932
     10930     10928     10931     10933     10930     10928     10931     10934
     10931     10934     10937     10938     10931     10934     10937     10939
     10931     10934     10937     10940     10932     10931     10934     10935
     10932     10931     10934     10936     10932     10931     10934     10937
     10933     10931     10934     10935     10933     10931     10934     10936
     10933     10931     10934     10937     10934     10937     10940     10941
     10934     10937     10940     10942     10934     10937     10940     10943
     10935     10934     10937     10938     10935     10934     10937     10939
     10935     10934     10937     10940     10936     10934     10937     10938
     10936     10934     10937     10939     10936     10934     10937     10940
     10937     10940     10943     10944     10937     10940     10943     10945
     10937     10940     10943     10946     10938     10937     10940     10941
     10938     10937     10940     10942     10938     10937     10940     10943
     10939     10937     10940     10941     10939     10937     10940     10942
     10939     10937     10940     10943     10941     10940     10943     10944
     10941     10940     10943     10945     10941     10940     10943     10946
     10942     10940     10943     10944     10942     10940     10943     10945
     10942     10940     10943     10946     10947     10950     10953     10954
     10947     10950     10953     10955     10947     10950     10953     10956
     10948     10947     10950     10951     10948     10947     10950     10952
     10948     10947     10950     10953     10949     10947     10950     10951
     10949     10947     10950     10952     10949     10947     10950     10953
     10950     10953     10956     10957     10950     10953     10956     10958
     10950     10953     10956     10959     10951     10950     10953     10954
     10951     10950     10953     10955     10951     10950     10953     10956
     10952     10950     10953     10954     10952     10950     10953     10955
     10952     10950     10953     10956     10953     10956     10959     10960
     10953     10956     10959     10961     10953     10956     10959     10962
     10954     10953     10956     10957     10954     10953     10956     10958
     10954     10953     10956     10959     10955     10953     10956     10957
     10955     10953     10956     10958     10955     10953     10956     10959
     10956     10959     10962     10963     10956     10959     10962     10964
     10956     10959     10962     10965     10957     10956     10959     10960
     10957     10956     10959     10961     10957     10956     10959     10962
     10958     10956     10959     10960     10958     10956     10959     10961
     10958     10956     10959     10962     10959     10962     10965     10966
     10959     10962     10965     10967     10959     10962     10965     10968
     10960     10959     10962     10963     10960     10959     10962     10964
     10960     10959     10962     10965     10961     10959     10962     10963
     10961     10959     10962     10964     10961     10959     10962     10965
     10962     10965     10968     10969     10962     10965     10968     10970
     10962     10965     10968     10971     10963     10962     10965     10966
     10963     10962     10965     10967     10963     10962     10965     10968
     10964     10962     10965     10966     10964     10962     10965     10967
     10964     10962     10965     10968     10965     10968     10971     10972
     10965     10968     10971     10973     10965     10968     10971     10974
     10966     10965     10968     10969     10966     10965     10968     10970
     10966     10965     10968     10971     10967     10965     10968     10969
     10967     10965     10968     10970     10967     10965     10968     10971
     10968     10971     10974     10975     10968     10971     10974     10976
     10968     10971     10974     10977     10969     10968     10971     10972
     10969     10968     10971     10973     10969     10968     10971     10974
     10970     10968     10971     10972     10970     10968     10971     10973
     10970     10968     10971     10974     10971     10974     10977     10978
     10971     10974     10977     10979     10971     10974     10977     10980
     10972     10971     10974     10975     10972     10971     10974     10976
     10972     10971     10974     10977     10973     10971     10974     10975
     10973     10971     10974     10976     10973     10971     10974     10977
     10974     10977     10980     10981     10974     10977     10980     10982
     10974     10977     10980     10983     10975     10974     10977     10978
     10975     10974     10977     10979     10975     10974     10977     10980
     10976     10974     10977     10978     10976     10974     10977     10979
     10976     10974     10977     10980     10977     10980     10983     10984
     10977     10980     10983     10985     10977     10980     10983     10986
     10978     10977     10980     10981     10978     10977     10980     10982
     10978     10977     10980     10983     10979     10977     10980     10981
     10979     10977     10980     10982     10979     10977     10980     10983
     10980     10983     10986     10987     10980     10983     10986     10988
     10980     10983     10986     10989     10981     10980     10983     10984
     10981     10980     10983     10985     10981     10980     10983     10986
     10982     10980     10983     10984     10982     10980     10983     10985
     10982     10980     10983     10986     10984     10983     10986     10987
     10984     10983     10986     10988     10984     10983     10986     10989
     10985     10983     10986     10987     10985     10983     10986     10988
     10985     10983     10986     10989     10990     10991     11006     11007
     10990     10991     11006     11008     10990     10991     11006     11012
     10991     10990     10994     10995     10991     10990     10994     10996
     10991     10990     10994     10997     10991     10990     10998     10999
     10991     10990     10998     11000     10991     10990     10998     11001
     10991     10990     11002     11003     10991     10990     11002     11004
     10991     10990     11002     11005     10991     11006     11012     11009
     10992     10991     10990     10994     10992     10991     10990     10998
     10992     10991     10990     11002     10992     10991     11006     11007
     10992     10991     11006     11008     10992     10991     11006     11012
     10993     10991     10990     10994     10993     10991     10990     10998
     10993     10991     10990     11002     10993     10991     11006     11007
     10993     10991     11006     11008     10993     10991     11006     11012
     10994     10990     10991     11006     10994     10990     10998     10999
     10994     10990     10998     11000     10994     10990     10998     11001
     10994     10990     11002     11003     10994     10990     11002     11004
     10994     10990     11002     11005     10995     10994     10990     10998
     10995     10994     10990     11002     10996     10994     10990     10998
     10996     10994     10990     11002     10997     10994     10990     10998
     10997     10994     10990     11002     10998     10990     10991     11006
     10998     10990     11002     11003     10998     10990     11002     11004
     10998     10990     11002     11005     10999     10998     10990     11002
     11000     10998     10990     11002     11001     10998     10990     11002
     11002     10990     10991     11006     11006     11012     11009     11010
     11006     11012     11009     11011     11006     11012     11009     11013
     11007     11006     11012     11009     11008     11006     11012     11009
     11009     11013     11014     11015     11009     11013     11014     11016
     11009     11013     11014     11017     11010     11009     11013     11014
     11011     11009     11013     11014     11012     11009     11013     11014
     11013     11014     11017     11018     11013     11014     11017     11019
     11013     11014     11017     11025     11014     11017     11019     11020
     11014     11017     11025     11026     11014     11017     11025     11027
     11014     11017     11025     11028     11015     11014     11017     11018
     11015     11014     11017     11019     11015     11014     11017     11025
     11016     11014     11017     11018     11016     11014     11017     11019
     11016     11014     11017     11025     11017     11019     11020     11021
     11017     11019     11020     11022     11017     11025     11028     11029
     11018     11017     11019     11020     11018     11017     11025     11026
     11018     11017     11025     11027     11018     11017     11025     11028
     11019     11017     11025     11026     11019     11017     11025     11027
     11019     11017     11025     11028     11019     11020     11022     11023
     11019     11020     11022     11024     11019     11020     11022     11034
     11020     11019     11017     11025     11020     11022     11034     11035
     11020     11022     11034     11036     11020     11022     11034     11037
     11021     11020     11022     11023     11021     11020     11022     11024
     11021     11020     11022     11034     11022     11034     11037     11038
     11022     11034     11037     11039     11022     11034     11037     11040
     11023     11022     11034     11035     11023     11022     11034     11036
     11023     11022     11034     11037     11024     11022     11034     11035
     11024     11022     11034     11036     11024     11022     11034     11037
     11025     11028     11029     11030     11025     11028     11029     11031
     11026     11025     11028     11029     11027     11025     11028     11029
     11028     11029     11031     11032     11028     11029     11031     11033
     11028     11029     11031     11081     11029     11031     11081     11082
     11029     11031     11081     11083     11029     11031     11081     11084
     11030     11029     11031     11032     11030     11029     11031     11033
     11030     11029     11031     11081     11031     11081     11084     11085
     11031     11081     11084     11086     11031     11081     11084     11087
     11032     11031     11081     11082     11032     11031     11081     11083
     11032     11031     11081     11084     11033     11031     11081     11082
     11033     11031     11081     11083     11033     11031     11081     11084
     11034     11037     11040     11041     11034     11037     11040     11042
     11034     11037     11040     11043     11035     11034     11037     11038
     11035     11034     11037     11039     11035     11034     11037     11040
     11036     11034     11037     11038     11036     11034     11037     11039
     11036     11034     11037     11040     11037     11040     11043     11044
     11037     11040     11043     11045     11037     11040     11043     11046
     11038     11037     11040     11041     11038     11037     11040     11042
     11038     11037     11040     11043     11039     11037     11040     11041
     11039     11037     11040     11042     11039     11037     11040     11043
     11040     11043     11046     11047     11040     11043     11046     11048
     11040     11043     11046     11049     11041     11040     11043     11044
     11041     11040     11043     11045     11041     11040     11043     11046
     11042     11040     11043     11044     11042     11040     11043     11045
     11042     11040     11043     11046     11043     11046     11049     11050
     11043     11046     11049     11051     11043     11046     11049     11052
     11044     11043     11046     11047     11044     11043     11046     11048
     11044     11043     11046     11049     11045     11043     11046     11047
     11045     11043     11046     11048     11045     11043     11046     11049
     11046     11049     11052     11053     11046     11049     11052     11054
     11047     11046     11049     11050     11047     11046     11049     11051
     11047     11046     11049     11052     11048     11046     11049     11050
     11048     11046     11049     11051     11048     11046     11049     11052
     11049     11052     11054     11055     11049     11052     11054     11056
     11050     11049     11052     11053     11050     11049     11052     11054
     11051     11049     11052     11053     11051     11049     11052     11054
     11052     11054     11056     11057     11052     11054     11056     11058
     11052     11054     11056     11059     11053     11052     11054     11055
     11053     11052     11054     11056     11054     11056     11059     11060
     11054     11056     11059     11061     11054     11056     11059     11062
     11055     11054     11056     11057     11055     11054     11056     11058
     11055     11054     11056     11059     11056     11059     11062     11063
     11056     11059     11062     11064     11056     11059     11062     11065
     11057     11056     11059     11060     11057     11056     11059     11061
     11057     11056     11059     11062     11058     11056     11059     11060
     11058     11056     11059     11061     11058     11056     11059     11062
     11059     11062     11065     11066     11059     11062     11065     11067
     11059     11062     11065     11068     11060     11059     11062     11063
     11060     11059     11062     11064     11060     11059     11062     11065
     11061     11059     11062     11063     11061     11059     11062     11064
     11061     11059     11062     11065     11062     11065     11068     11069
     11062     11065     11068     11070     11062     11065     11068     11071
     11063     11062     11065     11066     11063     11062     11065     11067
     11063     11062     11065     11068     11064     11062     11065     11066
     11064     11062     11065     11067     11064     11062     11065     11068
     11065     11068     11071     11072     11065     11068     11071     11073
     11065     11068     11071     11074     11066     11065     11068     11069
     11066     11065     11068     11070     11066     11065     11068     11071
     11067     11065     11068     11069     11067     11065     11068     11070
     11067     11065     11068     11071     11068     11071     11074     11075
     11068     11071     11074     11076     11068     11071     11074     11077
     11069     11068     11071     11072     11069     11068     11071     11073
     11069     11068     11071     11074     11070     11068     11071     11072
     11070     11068     11071     11073     11070     11068     11071     11074
     11071     11074     11077     11078     11071     11074     11077     11079
     11071     11074     11077     11080     11072     11071     11074     11075
     11072     11071     11074     11076     11072     11071     11074     11077
     11073     11071     11074     11075     11073     11071     11074     11076
     11073     11071     11074     11077     11075     11074     11077     11078
     11075     11074     11077     11079     11075     11074     11077     11080
     11076     11074     11077     11078     11076     11074     11077     11079
     11076     11074     11077     11080     11081     11084     11087     11088
     11081     11084     11087     11089     11081     11084     11087     11090
     11082     11081     11084     11085     11082     11081     11084     11086
     11082     11081     11084     11087     11083     11081     11084     11085
     11083     11081     11084     11086     11083     11081     11084     11087
     11084     11087     11090     11091     11084     11087     11090     11092
     11084     11087     11090     11093     11085     11084     11087     11088
     11085     11084     11087     11089     11085     11084     11087     11090
     11086     11084     11087     11088     11086     11084     11087     11089
     11086     11084     11087     11090     11087     11090     11093     11094
     11087     11090     11093     11095     11087     11090     11093     11096
     11088     11087     11090     11091     11088     11087     11090     11092
     11088     11087     11090     11093     11089     11087     11090     11091
     11089     11087     11090     11092     11089     11087     11090     11093
     11090     11093     11096     11097     11090     11093     11096     11098
     11090     11093     11096     11099     11091     11090     11093     11094
     11091     11090     11093     11095     11091     11090     11093     11096
     11092     11090     11093     11094     11092     11090     11093     11095
     11092     11090     11093     11096     11093     11096     11099     11100
     11093     11096     11099     11101     11093     11096     11099     11102
     11094     11093     11096     11097     11094     11093     11096     11098
     11094     11093     11096     11099     11095     11093     11096     11097
     11095     11093     11096     11098     11095     11093     11096     11099
     11096     11099     11102     11103     11096     11099     11102     11104
     11096     11099     11102     11105     11097     11096     11099     11100
     11097     11096     11099     11101     11097     11096     11099     11102
     11098     11096     11099     11100     11098     11096     11099     11101
     11098     11096     11099     11102     11099     11102     11105     11106
     11099     11102     11105     11107     11099     11102     11105     11108
     11100     11099     11102     11103     11100     11099     11102     11104
     11100     11099     11102     11105     11101     11099     11102     11103
     11101     11099     11102     11104     11101     11099     11102     11105
     11102     11105     11108     11109     11102     11105     11108     11110
     11102     11105     11108     11111     11103     11102     11105     11106
     11103     11102     11105     11107     11103     11102     11105     11108
     11104     11102     11105     11106     11104     11102     11105     11107
     11104     11102     11105     11108     11105     11108     11111     11112
     11105     11108     11111     11113     11105     11108     11111     11114
     11106     11105     11108     11109     11106     11105     11108     11110
     11106     11105     11108     11111     11107     11105     11108     11109
     11107     11105     11108     11110     11107     11105     11108     11111
     11108     11111     11114     11115     11108     11111     11114     11116
     11108     11111     11114     11117     11109     11108     11111     11112
     11109     11108     11111     11113     11109     11108     11111     11114
     11110     11108     11111     11112     11110     11108     11111     11113
     11110     11108     11111     11114     11111     11114     11117     11118
     11111     11114     11117     11119     11111     11114     11117     11120
     11112     11111     11114     11115     11112     11111     11114     11116
     11112     11111     11114     11117     11113     11111     11114     11115
     11113     11111     11114     11116     11113     11111     11114     11117
     11114     11117     11120     11121     11114     11117     11120     11122
     11114     11117     11120     11123     11115     11114     11117     11118
     11115     11114     11117     11119     11115     11114     11117     11120
     11116     11114     11117     11118     11116     11114     11117     11119
     11116     11114     11117     11120     11118     11117     11120     11121
     11118     11117     11120     11122     11118     11117     11120     11123
     11119     11117     11120     11121     11119     11117     11120     11122
     11119     11117     11120     11123     11124     11125     11140     11141
     11124     11125     11140     11142     11124     11125     11140     11146
     11125     11124     11128     11129     11125     11124     11128     11130
     11125     11124     11128     11131     11125     11124     11132     11133
     11125     11124     11132     11134     11125     11124     11132     11135
     11125     11124     11136     11137     11125     11124     11136     11138
     11125     11124     11136     11139     11125     11140     11146     11143
     11126     11125     11124     11128     11126     11125     11124     11132
     11126     11125     11124     11136     11126     11125     11140     11141
     11126     11125     11140     11142     11126     11125     11140     11146
     11127     11125     11124     11128     11127     11125     11124     11132
     11127     11125     11124     11136     11127     11125     11140     11141
     11127     11125     11140     11142     11127     11125     11140     11146
     11128     11124     11125     11140     11128     11124     11132     11133
     11128     11124     11132     11134     11128     11124     11132     11135
     11128     11124     11136     11137     11128     11124     11136     11138
     11128     11124     11136     11139     11129     11128     11124     11132
     11129     11128     11124     11136     11130     11128     11124     11132
     11130     11128     11124     11136     11131     11128     11124     11132
     11131     11128     11124     11136     11132     11124     11125     11140
     11132     11124     11136     11137     11132     11124     11136     11138
     11132     11124     11136     11139     11133     11132     11124     11136
     11134     11132     11124     11136     11135     11132     11124     11136
     11136     11124     11125     11140     11140     11146     11143     11144
     11140     11146     11143     11145     11140     11146     11143     11147
     11141     11140     11146     11143     11142     11140     11146     11143
     11143     11147     11148     11149     11143     11147     11148     11150
     11143     11147     11148     11151     11144     11143     11147     11148
     11145     11143     11147     11148     11146     11143     11147     11148
     11147     11148     11151     11152     11147     11148     11151     11153
     11147     11148     11151     11159     11148     11151     11153     11154
     11148     11151     11159     11160     11148     11151     11159     11161
     11148     11151     11159     11162     11149     11148     11151     11152
     11149     11148     11151     11153     11149     11148     11151     11159
     11150     11148     11151     11152     11150     11148     11151     11153
     11150     11148     11151     11159     11151     11153     11154     11155
     11151     11153     11154     11156     11151     11159     11162     11163
     11152     11151     11153     11154     11152     11151     11159     11160
     11152     11151     11159     11161     11152     11151     11159     11162
     11153     11151     11159     11160     11153     11151     11159     11161
     11153     11151     11159     11162     11153     11154     11156     11157
     11153     11154     11156     11158     11153     11154     11156     11168
     11154     11153     11151     11159     11154     11156     11168     11169
     11154     11156     11168     11170     11154     11156     11168     11171
     11155     11154     11156     11157     11155     11154     11156     11158
     11155     11154     11156     11168     11156     11168     11171     11172
     11156     11168     11171     11173     11156     11168     11171     11174
     11157     11156     11168     11169     11157     11156     11168     11170
     11157     11156     11168     11171     11158     11156     11168     11169
     11158     11156     11168     11170     11158     11156     11168     11171
     11159     11162     11163     11164     11159     11162     11163     11165
     11160     11159     11162     11163     11161     11159     11162     11163
     11162     11163     11165     11166     11162     11163     11165     11167
     11162     11163     11165     11215     11163     11165     11215     11216
     11163     11165     11215     11217     11163     11165     11215     11218
     11164     11163     11165     11166     11164     11163     11165     11167
     11164     11163     11165     11215     11165     11215     11218     11219
     11165     11215     11218     11220     11165     11215     11218     11221
     11166     11165     11215     11216     11166     11165     11215     11217
     11166     11165     11215     11218     11167     11165     11215     11216
     11167     11165     11215     11217     11167     11165     11215     11218
     11168     11171     11174     11175     11168     11171     11174     11176
     11168     11171     11174     11177     11169     11168     11171     11172
     11169     11168     11171     11173     11169     11168     11171     11174
     11170     11168     11171     11172     11170     11168     11171     11173
     11170     11168     11171     11174     11171     11174     11177     11178
     11171     11174     11177     11179     11171     11174     11177     11180
     11172     11171     11174     11175     11172     11171     11174     11176
     11172     11171     11174     11177     11173     11171     11174     11175
     11173     11171     11174     11176     11173     11171     11174     11177
     11174     11177     11180     11181     11174     11177     11180     11182
     11174     11177     11180     11183     11175     11174     11177     11178
     11175     11174     11177     11179     11175     11174     11177     11180
     11176     11174     11177     11178     11176     11174     11177     11179
     11176     11174     11177     11180     11177     11180     11183     11184
     11177     11180     11183     11185     11177     11180     11183     11186
     11178     11177     11180     11181     11178     11177     11180     11182
     11178     11177     11180     11183     11179     11177     11180     11181
     11179     11177     11180     11182     11179     11177     11180     11183
     11180     11183     11186     11187     11180     11183     11186     11188
     11181     11180     11183     11184     11181     11180     11183     11185
     11181     11180     11183     11186     11182     11180     11183     11184
     11182     11180     11183     11185     11182     11180     11183     11186
     11183     11186     11188     11189     11183     11186     11188     11190
     11184     11183     11186     11187     11184     11183     11186     11188
     11185     11183     11186     11187     11185     11183     11186     11188
     11186     11188     11190     11191     11186     11188     11190     11192
     11186     11188     11190     11193     11187     11186     11188     11189
     11187     11186     11188     11190     11188     11190     11193     11194
     11188     11190     11193     11195     11188     11190     11193     11196
     11189     11188     11190     11191     11189     11188     11190     11192
     11189     11188     11190     11193     11190     11193     11196     11197
     11190     11193     11196     11198     11190     11193     11196     11199
     11191     11190     11193     11194     11191     11190     11193     11195
     11191     11190     11193     11196     11192     11190     11193     11194
     11192     11190     11193     11195     11192     11190     11193     11196
     11193     11196     11199     11200     11193     11196     11199     11201
     11193     11196     11199     11202     11194     11193     11196     11197
     11194     11193     11196     11198     11194     11193     11196     11199
     11195     11193     11196     11197     11195     11193     11196     11198
     11195     11193     11196     11199     11196     11199     11202     11203
     11196     11199     11202     11204     11196     11199     11202     11205
     11197     11196     11199     11200     11197     11196     11199     11201
     11197     11196     11199     11202     11198     11196     11199     11200
     11198     11196     11199     11201     11198     11196     11199     11202
     11199     11202     11205     11206     11199     11202     11205     11207
     11199     11202     11205     11208     11200     11199     11202     11203
     11200     11199     11202     11204     11200     11199     11202     11205
     11201     11199     11202     11203     11201     11199     11202     11204
     11201     11199     11202     11205     11202     11205     11208     11209
     11202     11205     11208     11210     11202     11205     11208     11211
     11203     11202     11205     11206     11203     11202     11205     11207
     11203     11202     11205     11208     11204     11202     11205     11206
     11204     11202     11205     11207     11204     11202     11205     11208
     11205     11208     11211     11212     11205     11208     11211     11213
     11205     11208     11211     11214     11206     11205     11208     11209
     11206     11205     11208     11210     11206     11205     11208     11211
     11207     11205     11208     11209     11207     11205     11208     11210
     11207     11205     11208     11211     11209     11208     11211     11212
     11209     11208     11211     11213     11209     11208     11211     11214
     11210     11208     11211     11212     11210     11208     11211     11213
     11210     11208     11211     11214     11215     11218     11221     11222
     11215     11218     11221     11223     11215     11218     11221     11224
     11216     11215     11218     11219     11216     11215     11218     11220
     11216     11215     11218     11221     11217     11215     11218     11219
     11217     11215     11218     11220     11217     11215     11218     11221
     11218     11221     11224     11225     11218     11221     11224     11226
     11218     11221     11224     11227     11219     11218     11221     11222
     11219     11218     11221     11223     11219     11218     11221     11224
     11220     11218     11221     11222     11220     11218     11221     11223
     11220     11218     11221     11224     11221     11224     11227     11228
     11221     11224     11227     11229     11221     11224     11227     11230
     11222     11221     11224     11225     11222     11221     11224     11226
     11222     11221     11224     11227     11223     11221     11224     11225
     11223     11221     11224     11226     11223     11221     11224     11227
     11224     11227     11230     11231     11224     11227     11230     11232
     11224     11227     11230     11233     11225     11224     11227     11228
     11225     11224     11227     11229     11225     11224     11227     11230
     11226     11224     11227     11228     11226     11224     11227     11229
     11226     11224     11227     11230     11227     11230     11233     11234
     11227     11230     11233     11235     11227     11230     11233     11236
     11228     11227     11230     11231     11228     11227     11230     11232
     11228     11227     11230     11233     11229     11227     11230     11231
     11229     11227     11230     11232     11229     11227     11230     11233
     11230     11233     11236     11237     11230     11233     11236     11238
     11230     11233     11236     11239     11231     11230     11233     11234
     11231     11230     11233     11235     11231     11230     11233     11236
     11232     11230     11233     11234     11232     11230     11233     11235
     11232     11230     11233     11236     11233     11236     11239     11240
     11233     11236     11239     11241     11233     11236     11239     11242
     11234     11233     11236     11237     11234     11233     11236     11238
     11234     11233     11236     11239     11235     11233     11236     11237
     11235     11233     11236     11238     11235     11233     11236     11239
     11236     11239     11242     11243     11236     11239     11242     11244
     11236     11239     11242     11245     11237     11236     11239     11240
     11237     11236     11239     11241     11237     11236     11239     11242
     11238     11236     11239     11240     11238     11236     11239     11241
     11238     11236     11239     11242     11239     11242     11245     11246
     11239     11242     11245     11247     11239     11242     11245     11248
     11240     11239     11242     11243     11240     11239     11242     11244
     11240     11239     11242     11245     11241     11239     11242     11243
     11241     11239     11242     11244     11241     11239     11242     11245
     11242     11245     11248     11249     11242     11245     11248     11250
     11242     11245     11248     11251     11243     11242     11245     11246
     11243     11242     11245     11247     11243     11242     11245     11248
     11244     11242     11245     11246     11244     11242     11245     11247
     11244     11242     11245     11248     11245     11248     11251     11252
     11245     11248     11251     11253     11245     11248     11251     11254
     11246     11245     11248     11249     11246     11245     11248     11250
     11246     11245     11248     11251     11247     11245     11248     11249
     11247     11245     11248     11250     11247     11245     11248     11251
     11248     11251     11254     11255     11248     11251     11254     11256
     11248     11251     11254     11257     11249     11248     11251     11252
     11249     11248     11251     11253     11249     11248     11251     11254
     11250     11248     11251     11252     11250     11248     11251     11253
     11250     11248     11251     11254     11252     11251     11254     11255
     11252     11251     11254     11256     11252     11251     11254     11257
     11253     11251     11254     11255     11253     11251     11254     11256
     11253     11251     11254     11257     11258     11262     11264     11265
     11258     11262     11264     11266     11258     11262     11267     11268
     11258     11262     11267     11269     11258     11262     11267     11273
     11259     11258     11262     11263     11259     11258     11262     11264
     11259     11258     11262     11267     11260     11258     11262     11263
     11260     11258     11262     11264     11260     11258     11262     11267
     11261     11258     11262     11263     11261     11258     11262     11264
     11261     11258     11262     11267     11262     11267     11273     11270
     11263     11262     11264     11265     11263     11262     11264     11266
     11263     11262     11267     11268     11263     11262     11267     11269
     11263     11262     11267     11273     11264     11262     11267     11268
     11264     11262     11267     11269     11264     11262     11267     11273
     11265     11264     11262     11267     11266     11264     11262     11267
     11267     11273     11270     11271     11267     11273     11270     11272
     11267     11273     11270     11274     11268     11267     11273     11270
     11269     11267     11273     11270     11270     11274     11275     11276
     11270     11274     11275     11277     11270     11274     11275     11278
     11271     11270     11274     11275     11272     11270     11274     11275
     11273     11270     11274     11275     11274     11275     11278     11279
     11274     11275     11278     11280     11274     11275     11278     11286
     11275     11278     11280     11281     11275     11278     11286     11287
     11275     11278     11286     11288     11275     11278     11286     11289
     11276     11275     11278     11279     11276     11275     11278     11280
     11276     11275     11278     11286     11277     11275     11278     11279
     11277     11275     11278     11280     11277     11275     11278     11286
     11278     11280     11281     11282     11278     11280     11281     11283
     11278     11286     11289     11290     11279     11278     11280     11281
     11279     11278     11286     11287     11279     11278     11286     11288
     11279     11278     11286     11289     11280     11278     11286     11287
     11280     11278     11286     11288     11280     11278     11286     11289
     11280     11281     11283     11284     11280     11281     11283     11285
     11280     11281     11283     11295     11281     11280     11278     11286
     11281     11283     11295     11296     11281     11283     11295     11297
     11281     11283     11295     11298     11282     11281     11283     11284
     11282     11281     11283     11285     11282     11281     11283     11295
     11283     11295     11298     11299     11283     11295     11298     11300
     11283     11295     11298     11301     11284     11283     11295     11296
     11284     11283     11295     11297     11284     11283     11295     11298
     11285     11283     11295     11296     11285     11283     11295     11297
     11285     11283     11295     11298     11286     11289     11290     11291
     11286     11289     11290     11292     11287     11286     11289     11290
     11288     11286     11289     11290     11289     11290     11292     11293
     11289     11290     11292     11294     11289     11290     11292     11342
     11290     11292     11342     11343     11290     11292     11342     11344
     11290     11292     11342     11345     11291     11290     11292     11293
     11291     11290     11292     11294     11291     11290     11292     11342
     11292     11342     11345     11346     11292     11342     11345     11347
     11292     11342     11345     11348     11293     11292     11342     11343
     11293     11292     11342     11344     11293     11292     11342     11345
     11294     11292     11342     11343     11294     11292     11342     11344
     11294     11292     11342     11345     11295     11298     11301     11302
     11295     11298     11301     11303     11295     11298     11301     11304
     11296     11295     11298     11299     11296     11295     11298     11300
     11296     11295     11298     11301     11297     11295     11298     11299
     11297     11295     11298     11300     11297     11295     11298     11301
     11298     11301     11304     11305     11298     11301     11304     11306
     11298     11301     11304     11307     11299     11298     11301     11302
     11299     11298     11301     11303     11299     11298     11301     11304
     11300     11298     11301     11302     11300     11298     11301     11303
     11300     11298     11301     11304     11301     11304     11307     11308
     11301     11304     11307     11309     11301     11304     11307     11310
     11302     11301     11304     11305     11302     11301     11304     11306
     11302     11301     11304     11307     11303     11301     11304     11305
     11303     11301     11304     11306     11303     11301     11304     11307
     11304     11307     11310     11311     11304     11307     11310     11312
     11304     11307     11310     11313     11305     11304     11307     11308
     11305     11304     11307     11309     11305     11304     11307     11310
     11306     11304     11307     11308     11306     11304     11307     11309
     11306     11304     11307     11310     11307     11310     11313     11314
     11307     11310     11313     11315     11308     11307     11310     11311
     11308     11307     11310     11312     11308     11307     11310     11313
     11309     11307     11310     11311     11309     11307     11310     11312
     11309     11307     11310     11313     11310     11313     11315     11316
     11310     11313     11315     11317     11311     11310     11313     11314
     11311     11310     11313     11315     11312     11310     11313     11314
     11312     11310     11313     11315     11313     11315     11317     11318
     11313     11315     11317     11319     11313     11315     11317     11320
     11314     11313     11315     11316     11314     11313     11315     11317
     11315     11317     11320     11321     11315     11317     11320     11322
     11315     11317     11320     11323     11316     11315     11317     11318
     11316     11315     11317     11319     11316     11315     11317     11320
     11317     11320     11323     11324     11317     11320     11323     11325
     11317     11320     11323     11326     11318     11317     11320     11321
     11318     11317     11320     11322     11318     11317     11320     11323
     11319     11317     11320     11321     11319     11317     11320     11322
     11319     11317     11320     11323     11320     11323     11326     11327
     11320     11323     11326     11328     11320     11323     11326     11329
     11321     11320     11323     11324     11321     11320     11323     11325
     11321     11320     11323     11326     11322     11320     11323     11324
     11322     11320     11323     11325     11322     11320     11323     11326
     11323     11326     11329     11330     11323     11326     11329     11331
     11323     11326     11329     11332     11324     11323     11326     11327
     11324     11323     11326     11328     11324     11323     11326     11329
     11325     11323     11326     11327     11325     11323     11326     11328
     11325     11323     11326     11329     11326     11329     11332     11333
     11326     11329     11332     11334     11326     11329     11332     11335
     11327     11326     11329     11330     11327     11326     11329     11331
     11327     11326     11329     11332     11328     11326     11329     11330
     11328     11326     11329     11331     11328     11326     11329     11332
     11329     11332     11335     11336     11329     11332     11335     11337
     11329     11332     11335     11338     11330     11329     11332     11333
     11330     11329     11332     11334     11330     11329     11332     11335
     11331     11329     11332     11333     11331     11329     11332     11334
     11331     11329     11332     11335     11332     11335     11338     11339
     11332     11335     11338     11340     11332     11335     11338     11341
     11333     11332     11335     11336     11333     11332     11335     11337
     11333     11332     11335     11338     11334     11332     11335     11336
     11334     11332     11335     11337     11334     11332     11335     11338
     11336     11335     11338     11339     11336     11335     11338     11340
     11336     11335     11338     11341     11337     11335     11338     11339
     11337     11335     11338     11340     11337     11335     11338     11341
     11342     11345     11348     11349     11342     11345     11348     11350
     11342     11345     11348     11351     11343     11342     11345     11346
     11343     11342     11345     11347     11343     11342     11345     11348
     11344     11342     11345     11346     11344     11342     11345     11347
     11344     11342     11345     11348     11345     11348     11351     11352
     11345     11348     11351     11353     11345     11348     11351     11354
     11346     11345     11348     11349     11346     11345     11348     11350
     11346     11345     11348     11351     11347     11345     11348     11349
     11347     11345     11348     11350     11347     11345     11348     11351
     11348     11351     11354     11355     11348     11351     11354     11356
     11348     11351     11354     11357     11349     11348     11351     11352
     11349     11348     11351     11353     11349     11348     11351     11354
     11350     11348     11351     11352     11350     11348     11351     11353
     11350     11348     11351     11354     11351     11354     11357     11358
     11351     11354     11357     11359     11351     11354     11357     11360
     11352     11351     11354     11355     11352     11351     11354     11356
     11352     11351     11354     11357     11353     11351     11354     11355
     11353     11351     11354     11356     11353     11351     11354     11357
     11354     11357     11360     11361     11354     11357     11360     11362
     11354     11357     11360     11363     11355     11354     11357     11358
     11355     11354     11357     11359     11355     11354     11357     11360
     11356     11354     11357     11358     11356     11354     11357     11359
     11356     11354     11357     11360     11357     11360     11363     11364
     11357     11360     11363     11365     11357     11360     11363     11366
     11358     11357     11360     11361     11358     11357     11360     11362
     11358     11357     11360     11363     11359     11357     11360     11361
     11359     11357     11360     11362     11359     11357     11360     11363
     11360     11363     11366     11367     11360     11363     11366     11368
     11360     11363     11366     11369     11361     11360     11363     11364
     11361     11360     11363     11365     11361     11360     11363     11366
     11362     11360     11363     11364     11362     11360     11363     11365
     11362     11360     11363     11366     11363     11366     11369     11370
     11363     11366     11369     11371     11363     11366     11369     11372
     11364     11363     11366     11367     11364     11363     11366     11368
     11364     11363     11366     11369     11365     11363     11366     11367
     11365     11363     11366     11368     11365     11363     11366     11369
     11366     11369     11372     11373     11366     11369     11372     11374
     11366     11369     11372     11375     11367     11366     11369     11370
     11367     11366     11369     11371     11367     11366     11369     11372
     11368     11366     11369     11370     11368     11366     11369     11371
     11368     11366     11369     11372     11369     11372     11375     11376
     11369     11372     11375     11377     11369     11372     11375     11378
     11370     11369     11372     11373     11370     11369     11372     11374
     11370     11369     11372     11375     11371     11369     11372     11373
     11371     11369     11372     11374     11371     11369     11372     11375
     11372     11375     11378     11379     11372     11375     11378     11380
     11372     11375     11378     11381     11373     11372     11375     11376
     11373     11372     11375     11377     11373     11372     11375     11378
     11374     11372     11375     11376     11374     11372     11375     11377
     11374     11372     11375     11378     11375     11378     11381     11382
     11375     11378     11381     11383     11375     11378     11381     11384
     11376     11375     11378     11379     11376     11375     11378     11380
     11376     11375     11378     11381     11377     11375     11378     11379
     11377     11375     11378     11380     11377     11375     11378     11381
     11379     11378     11381     11382     11379     11378     11381     11383
     11379     11378     11381     11384     11380     11378     11381     11382
     11380     11378     11381     11383     11380     11378     11381     11384
     11385     11386     11401     11402     11385     11386     11401     11403
     11385     11386     11401     11407     11386     11385     11389     11390
     11386     11385     11389     11391     11386     11385     11389     11392
     11386     11385     11393     11394     11386     11385     11393     11395
     11386     11385     11393     11396     11386     11385     11397     11398
     11386     11385     11397     11399     11386     11385     11397     11400
     11386     11401     11407     11404     11387     11386     11385     11389
     11387     11386     11385     11393     11387     11386     11385     11397
     11387     11386     11401     11402     11387     11386     11401     11403
     11387     11386     11401     11407     11388     11386     11385     11389
     11388     11386     11385     11393     11388     11386     11385     11397
     11388     11386     11401     11402     11388     11386     11401     11403
     11388     11386     11401     11407     11389     11385     11386     11401
     11389     11385     11393     11394     11389     11385     11393     11395
     11389     11385     11393     11396     11389     11385     11397     11398
     11389     11385     11397     11399     11389     11385     11397     11400
     11390     11389     11385     11393     11390     11389     11385     11397
     11391     11389     11385     11393     11391     11389     11385     11397
     11392     11389     11385     11393     11392     11389     11385     11397
     11393     11385     11386     11401     11393     11385     11397     11398
     11393     11385     11397     11399     11393     11385     11397     11400
     11394     11393     11385     11397     11395     11393     11385     11397
     11396     11393     11385     11397     11397     11385     11386     11401
     11401     11407     11404     11405     11401     11407     11404     11406
     11401     11407     11404     11408     11402     11401     11407     11404
     11403     11401     11407     11404     11404     11408     11409     11410
     11404     11408     11409     11411     11404     11408     11409     11412
     11405     11404     11408     11409     11406     11404     11408     11409
     11407     11404     11408     11409     11408     11409     11412     11413
     11408     11409     11412     11414     11408     11409     11412     11420
     11409     11412     11414     11415     11409     11412     11420     11421
     11409     11412     11420     11422     11409     11412     11420     11423
     11410     11409     11412     11413     11410     11409     11412     11414
     11410     11409     11412     11420     11411     11409     11412     11413
     11411     11409     11412     11414     11411     11409     11412     11420
     11412     11414     11415     11416     11412     11414     11415     11417
     11412     11420     11423     11424     11413     11412     11414     11415
     11413     11412     11420     11421     11413     11412     11420     11422
     11413     11412     11420     11423     11414     11412     11420     11421
     11414     11412     11420     11422     11414     11412     11420     11423
     11414     11415     11417     11418     11414     11415     11417     11419
     11414     11415     11417     11429     11415     11414     11412     11420
     11415     11417     11429     11430     11415     11417     11429     11431
     11415     11417     11429     11432     11416     11415     11417     11418
     11416     11415     11417     11419     11416     11415     11417     11429
     11417     11429     11432     11433     11417     11429     11432     11434
     11417     11429     11432     11435     11418     11417     11429     11430
     11418     11417     11429     11431     11418     11417     11429     11432
     11419     11417     11429     11430     11419     11417     11429     11431
     11419     11417     11429     11432     11420     11423     11424     11425
     11420     11423     11424     11426     11421     11420     11423     11424
     11422     11420     11423     11424     11423     11424     11426     11427
     11423     11424     11426     11428     11423     11424     11426     11476
     11424     11426     11476     11477     11424     11426     11476     11478
     11424     11426     11476     11479     11425     11424     11426     11427
     11425     11424     11426     11428     11425     11424     11426     11476
     11426     11476     11479     11480     11426     11476     11479     11481
     11426     11476     11479     11482     11427     11426     11476     11477
     11427     11426     11476     11478     11427     11426     11476     11479
     11428     11426     11476     11477     11428     11426     11476     11478
     11428     11426     11476     11479     11429     11432     11435     11436
     11429     11432     11435     11437     11429     11432     11435     11438
     11430     11429     11432     11433     11430     11429     11432     11434
     11430     11429     11432     11435     11431     11429     11432     11433
     11431     11429     11432     11434     11431     11429     11432     11435
     11432     11435     11438     11439     11432     11435     11438     11440
     11432     11435     11438     11441     11433     11432     11435     11436
     11433     11432     11435     11437     11433     11432     11435     11438
     11434     11432     11435     11436     11434     11432     11435     11437
     11434     11432     11435     11438     11435     11438     11441     11442
     11435     11438     11441     11443     11435     11438     11441     11444
     11436     11435     11438     11439     11436     11435     11438     11440
     11436     11435     11438     11441     11437     11435     11438     11439
     11437     11435     11438     11440     11437     11435     11438     11441
     11438     11441     11444     11445     11438     11441     11444     11446
     11438     11441     11444     11447     11439     11438     11441     11442
     11439     11438     11441     11443     11439     11438     11441     11444
     11440     11438     11441     11442     11440     11438     11441     11443
     11440     11438     11441     11444     11441     11444     11447     11448
     11441     11444     11447     11449     11442     11441     11444     11445
     11442     11441     11444     11446     11442     11441     11444     11447
     11443     11441     11444     11445     11443     11441     11444     11446
     11443     11441     11444     11447     11444     11447     11449     11450
     11444     11447     11449     11451     11445     11444     11447     11448
     11445     11444     11447     11449     11446     11444     11447     11448
     11446     11444     11447     11449     11447     11449     11451     11452
     11447     11449     11451     11453     11447     11449     11451     11454
     11448     11447     11449     11450     11448     11447     11449     11451
     11449     11451     11454     11455     11449     11451     11454     11456
     11449     11451     11454     11457     11450     11449     11451     11452
     11450     11449     11451     11453     11450     11449     11451     11454
     11451     11454     11457     11458     11451     11454     11457     11459
     11451     11454     11457     11460     11452     11451     11454     11455
     11452     11451     11454     11456     11452     11451     11454     11457
     11453     11451     11454     11455     11453     11451     11454     11456
     11453     11451     11454     11457     11454     11457     11460     11461
     11454     11457     11460     11462     11454     11457     11460     11463
     11455     11454     11457     11458     11455     11454     11457     11459
     11455     11454     11457     11460     11456     11454     11457     11458
     11456     11454     11457     11459     11456     11454     11457     11460
     11457     11460     11463     11464     11457     11460     11463     11465
     11457     11460     11463     11466     11458     11457     11460     11461
     11458     11457     11460     11462     11458     11457     11460     11463
     11459     11457     11460     11461     11459     11457     11460     11462
     11459     11457     11460     11463     11460     11463     11466     11467
     11460     11463     11466     11468     11460     11463     11466     11469
     11461     11460     11463     11464     11461     11460     11463     11465
     11461     11460     11463     11466     11462     11460     11463     11464
     11462     11460     11463     11465     11462     11460     11463     11466
     11463     11466     11469     11470     11463     11466     11469     11471
     11463     11466     11469     11472     11464     11463     11466     11467
     11464     11463     11466     11468     11464     11463     11466     11469
     11465     11463     11466     11467     11465     11463     11466     11468
     11465     11463     11466     11469     11466     11469     11472     11473
     11466     11469     11472     11474     11466     11469     11472     11475
     11467     11466     11469     11470     11467     11466     11469     11471
     11467     11466     11469     11472     11468     11466     11469     11470
     11468     11466     11469     11471     11468     11466     11469     11472
     11470     11469     11472     11473     11470     11469     11472     11474
     11470     11469     11472     11475     11471     11469     11472     11473
     11471     11469     11472     11474     11471     11469     11472     11475
     11476     11479     11482     11483     11476     11479     11482     11484
     11476     11479     11482     11485     11477     11476     11479     11480
     11477     11476     11479     11481     11477     11476     11479     11482
     11478     11476     11479     11480     11478     11476     11479     11481
     11478     11476     11479     11482     11479     11482     11485     11486
     11479     11482     11485     11487     11479     11482     11485     11488
     11480     11479     11482     11483     11480     11479     11482     11484
     11480     11479     11482     11485     11481     11479     11482     11483
     11481     11479     11482     11484     11481     11479     11482     11485
     11482     11485     11488     11489     11482     11485     11488     11490
     11482     11485     11488     11491     11483     11482     11485     11486
     11483     11482     11485     11487     11483     11482     11485     11488
     11484     11482     11485     11486     11484     11482     11485     11487
     11484     11482     11485     11488     11485     11488     11491     11492
     11485     11488     11491     11493     11485     11488     11491     11494
     11486     11485     11488     11489     11486     11485     11488     11490
     11486     11485     11488     11491     11487     11485     11488     11489
     11487     11485     11488     11490     11487     11485     11488     11491
     11488     11491     11494     11495     11488     11491     11494     11496
     11488     11491     11494     11497     11489     11488     11491     11492
     11489     11488     11491     11493     11489     11488     11491     11494
     11490     11488     11491     11492     11490     11488     11491     11493
     11490     11488     11491     11494     11491     11494     11497     11498
     11491     11494     11497     11499     11491     11494     11497     11500
     11492     11491     11494     11495     11492     11491     11494     11496
     11492     11491     11494     11497     11493     11491     11494     11495
     11493     11491     11494     11496     11493     11491     11494     11497
     11494     11497     11500     11501     11494     11497     11500     11502
     11494     11497     11500     11503     11495     11494     11497     11498
     11495     11494     11497     11499     11495     11494     11497     11500
     11496     11494     11497     11498     11496     11494     11497     11499
     11496     11494     11497     11500     11497     11500     11503     11504
     11497     11500     11503     11505     11497     11500     11503     11506
     11498     11497     11500     11501     11498     11497     11500     11502
     11498     11497     11500     11503     11499     11497     11500     11501
     11499     11497     11500     11502     11499     11497     11500     11503
     11500     11503     11506     11507     11500     11503     11506     11508
     11500     11503     11506     11509     11501     11500     11503     11504
     11501     11500     11503     11505     11501     11500     11503     11506
     11502     11500     11503     11504     11502     11500     11503     11505
     11502     11500     11503     11506     11503     11506     11509     11510
     11503     11506     11509     11511     11503     11506     11509     11512
     11504     11503     11506     11507     11504     11503     11506     11508
     11504     11503     11506     11509     11505     11503     11506     11507
     11505     11503     11506     11508     11505     11503     11506     11509
     11506     11509     11512     11513     11506     11509     11512     11514
     11506     11509     11512     11515     11507     11506     11509     11510
     11507     11506     11509     11511     11507     11506     11509     11512
     11508     11506     11509     11510     11508     11506     11509     11511
     11508     11506     11509     11512     11509     11512     11515     11516
     11509     11512     11515     11517     11509     11512     11515     11518
     11510     11509     11512     11513     11510     11509     11512     11514
     11510     11509     11512     11515     11511     11509     11512     11513
     11511     11509     11512     11514     11511     11509     11512     11515
     11513     11512     11515     11516     11513     11512     11515     11517
     11513     11512     11515     11518     11514     11512     11515     11516
     11514     11512     11515     11517     11514     11512     11515     11518
     11519     11520     11535     11536     11519     11520     11535     11537
     11519     11520     11535     11541     11520     11519     11523     11524
     11520     11519     11523     11525     11520     11519     11523     11526
     11520     11519     11527     11528     11520     11519     11527     11529
     11520     11519     11527     11530     11520     11519     11531     11532
     11520     11519     11531     11533     11520     11519     11531     11534
     11520     11535     11541     11538     11521     11520     11519     11523
     11521     11520     11519     11527     11521     11520     11519     11531
     11521     11520     11535     11536     11521     11520     11535     11537
     11521     11520     11535     11541     11522     11520     11519     11523
     11522     11520     11519     11527     11522     11520     11519     11531
     11522     11520     11535     11536     11522     11520     11535     11537
     11522     11520     11535     11541     11523     11519     11520     11535
     11523     11519     11527     11528     11523     11519     11527     11529
     11523     11519     11527     11530     11523     11519     11531     11532
     11523     11519     11531     11533     11523     11519     11531     11534
     11524     11523     11519     11527     11524     11523     11519     11531
     11525     11523     11519     11527     11525     11523     11519     11531
     11526     11523     11519     11527     11526     11523     11519     11531
     11527     11519     11520     11535     11527     11519     11531     11532
     11527     11519     11531     11533     11527     11519     11531     11534
     11528     11527     11519     11531     11529     11527     11519     11531
     11530     11527     11519     11531     11531     11519     11520     11535
     11535     11541     11538     11539     11535     11541     11538     11540
     11535     11541     11538     11542     11536     11535     11541     11538
     11537     11535     11541     11538     11538     11542     11543     11544
     11538     11542     11543     11545     11538     11542     11543     11546
     11539     11538     11542     11543     11540     11538     11542     11543
     11541     11538     11542     11543     11542     11543     11546     11547
     11542     11543     11546     11548     11542     11543     11546     11554
     11543     11546     11548     11549     11543     11546     11554     11555
     11543     11546     11554     11556     11543     11546     11554     11557
     11544     11543     11546     11547     11544     11543     11546     11548
     11544     11543     11546     11554     11545     11543     11546     11547
     11545     11543     11546     11548     11545     11543     11546     11554
     11546     11548     11549     11550     11546     11548     11549     11551
     11546     11554     11557     11558     11547     11546     11548     11549
     11547     11546     11554     11555     11547     11546     11554     11556
     11547     11546     11554     11557     11548     11546     11554     11555
     11548     11546     11554     11556     11548     11546     11554     11557
     11548     11549     11551     11552     11548     11549     11551     11553
     11548     11549     11551     11563     11549     11548     11546     11554
     11549     11551     11563     11564     11549     11551     11563     11565
     11549     11551     11563     11566     11550     11549     11551     11552
     11550     11549     11551     11553     11550     11549     11551     11563
     11551     11563     11566     11567     11551     11563     11566     11568
     11551     11563     11566     11569     11552     11551     11563     11564
     11552     11551     11563     11565     11552     11551     11563     11566
     11553     11551     11563     11564     11553     11551     11563     11565
     11553     11551     11563     11566     11554     11557     11558     11559
     11554     11557     11558     11560     11555     11554     11557     11558
     11556     11554     11557     11558     11557     11558     11560     11561
     11557     11558     11560     11562     11557     11558     11560     11610
     11558     11560     11610     11611     11558     11560     11610     11612
     11558     11560     11610     11613     11559     11558     11560     11561
     11559     11558     11560     11562     11559     11558     11560     11610
     11560     11610     11613     11614     11560     11610     11613     11615
     11560     11610     11613     11616     11561     11560     11610     11611
     11561     11560     11610     11612     11561     11560     11610     11613
     11562     11560     11610     11611     11562     11560     11610     11612
     11562     11560     11610     11613     11563     11566     11569     11570
     11563     11566     11569     11571     11563     11566     11569     11572
     11564     11563     11566     11567     11564     11563     11566     11568
     11564     11563     11566     11569     11565     11563     11566     11567
     11565     11563     11566     11568     11565     11563     11566     11569
     11566     11569     11572     11573     11566     11569     11572     11574
     11566     11569     11572     11575     11567     11566     11569     11570
     11567     11566     11569     11571     11567     11566     11569     11572
     11568     11566     11569     11570     11568     11566     11569     11571
     11568     11566     11569     11572     11569     11572     11575     11576
     11569     11572     11575     11577     11569     11572     11575     11578
     11570     11569     11572     11573     11570     11569     11572     11574
     11570     11569     11572     11575     11571     11569     11572     11573
     11571     11569     11572     11574     11571     11569     11572     11575
     11572     11575     11578     11579     11572     11575     11578     11580
     11572     11575     11578     11581     11573     11572     11575     11576
     11573     11572     11575     11577     11573     11572     11575     11578
     11574     11572     11575     11576     11574     11572     11575     11577
     11574     11572     11575     11578     11575     11578     11581     11582
     11575     11578     11581     11583     11576     11575     11578     11579
     11576     11575     11578     11580     11576     11575     11578     11581
     11577     11575     11578     11579     11577     11575     11578     11580
     11577     11575     11578     11581     11578     11581     11583     11584
     11578     11581     11583     11585     11579     11578     11581     11582
     11579     11578     11581     11583     11580     11578     11581     11582
     11580     11578     11581     11583     11581     11583     11585     11586
     11581     11583     11585     11587     11581     11583     11585     11588
     11582     11581     11583     11584     11582     11581     11583     11585
     11583     11585     11588     11589     11583     11585     11588     11590
     11583     11585     11588     11591     11584     11583     11585     11586
     11584     11583     11585     11587     11584     11583     11585     11588
     11585     11588     11591     11592     11585     11588     11591     11593
     11585     11588     11591     11594     11586     11585     11588     11589
     11586     11585     11588     11590     11586     11585     11588     11591
     11587     11585     11588     11589     11587     11585     11588     11590
     11587     11585     11588     11591     11588     11591     11594     11595
     11588     11591     11594     11596     11588     11591     11594     11597
     11589     11588     11591     11592     11589     11588     11591     11593
     11589     11588     11591     11594     11590     11588     11591     11592
     11590     11588     11591     11593     11590     11588     11591     11594
     11591     11594     11597     11598     11591     11594     11597     11599
     11591     11594     11597     11600     11592     11591     11594     11595
     11592     11591     11594     11596     11592     11591     11594     11597
     11593     11591     11594     11595     11593     11591     11594     11596
     11593     11591     11594     11597     11594     11597     11600     11601
     11594     11597     11600     11602     11594     11597     11600     11603
     11595     11594     11597     11598     11595     11594     11597     11599
     11595     11594     11597     11600     11596     11594     11597     11598
     11596     11594     11597     11599     11596     11594     11597     11600
     11597     11600     11603     11604     11597     11600     11603     11605
     11597     11600     11603     11606     11598     11597     11600     11601
     11598     11597     11600     11602     11598     11597     11600     11603
     11599     11597     11600     11601     11599     11597     11600     11602
     11599     11597     11600     11603     11600     11603     11606     11607
     11600     11603     11606     11608     11600     11603     11606     11609
     11601     11600     11603     11604     11601     11600     11603     11605
     11601     11600     11603     11606     11602     11600     11603     11604
     11602     11600     11603     11605     11602     11600     11603     11606
     11604     11603     11606     11607     11604     11603     11606     11608
     11604     11603     11606     11609     11605     11603     11606     11607
     11605     11603     11606     11608     11605     11603     11606     11609
     11610     11613     11616     11617     11610     11613     11616     11618
     11610     11613     11616     11619     11611     11610     11613     11614
     11611     11610     11613     11615     11611     11610     11613     11616
     11612     11610     11613     11614     11612     11610     11613     11615
     11612     11610     11613     11616     11613     11616     11619     11620
     11613     11616     11619     11621     11613     11616     11619     11622
     11614     11613     11616     11617     11614     11613     11616     11618
     11614     11613     11616     11619     11615     11613     11616     11617
     11615     11613     11616     11618     11615     11613     11616     11619
     11616     11619     11622     11623     11616     11619     11622     11624
     11616     11619     11622     11625     11617     11616     11619     11620
     11617     11616     11619     11621     11617     11616     11619     11622
     11618     11616     11619     11620     11618     11616     11619     11621
     11618     11616     11619     11622     11619     11622     11625     11626
     11619     11622     11625     11627     11619     11622     11625     11628
     11620     11619     11622     11623     11620     11619     11622     11624
     11620     11619     11622     11625     11621     11619     11622     11623
     11621     11619     11622     11624     11621     11619     11622     11625
     11622     11625     11628     11629     11622     11625     11628     11630
     11622     11625     11628     11631     11623     11622     11625     11626
     11623     11622     11625     11627     11623     11622     11625     11628
     11624     11622     11625     11626     11624     11622     11625     11627
     11624     11622     11625     11628     11625     11628     11631     11632
     11625     11628     11631     11633     11625     11628     11631     11634
     11626     11625     11628     11629     11626     11625     11628     11630
     11626     11625     11628     11631     11627     11625     11628     11629
     11627     11625     11628     11630     11627     11625     11628     11631
     11628     11631     11634     11635     11628     11631     11634     11636
     11628     11631     11634     11637     11629     11628     11631     11632
     11629     11628     11631     11633     11629     11628     11631     11634
     11630     11628     11631     11632     11630     11628     11631     11633
     11630     11628     11631     11634     11631     11634     11637     11638
     11631     11634     11637     11639     11631     11634     11637     11640
     11632     11631     11634     11635     11632     11631     11634     11636
     11632     11631     11634     11637     11633     11631     11634     11635
     11633     11631     11634     11636     11633     11631     11634     11637
     11634     11637     11640     11641     11634     11637     11640     11642
     11634     11637     11640     11643     11635     11634     11637     11638
     11635     11634     11637     11639     11635     11634     11637     11640
     11636     11634     11637     11638     11636     11634     11637     11639
     11636     11634     11637     11640     11637     11640     11643     11644
     11637     11640     11643     11645     11637     11640     11643     11646
     11638     11637     11640     11641     11638     11637     11640     11642
     11638     11637     11640     11643     11639     11637     11640     11641
     11639     11637     11640     11642     11639     11637     11640     11643
     11640     11643     11646     11647     11640     11643     11646     11648
     11640     11643     11646     11649     11641     11640     11643     11644
     11641     11640     11643     11645     11641     11640     11643     11646
     11642     11640     11643     11644     11642     11640     11643     11645
     11642     11640     11643     11646     11643     11646     11649     11650
     11643     11646     11649     11651     11643     11646     11649     11652
     11644     11643     11646     11647     11644     11643     11646     11648
     11644     11643     11646     11649     11645     11643     11646     11647
     11645     11643     11646     11648     11645     11643     11646     11649
     11647     11646     11649     11650     11647     11646     11649     11651
     11647     11646     11649     11652     11648     11646     11649     11650
     11648     11646     11649     11651     11648     11646     11649     11652
     11653     11654     11669     11670     11653     11654     11669     11671
     11653     11654     11669     11675     11654     11653     11657     11658
     11654     11653     11657     11659     11654     11653     11657     11660
     11654     11653     11661     11662     11654     11653     11661     11663
     11654     11653     11661     11664     11654     11653     11665     11666
     11654     11653     11665     11667     11654     11653     11665     11668
     11654     11669     11675     11672     11655     11654     11653     11657
     11655     11654     11653     11661     11655     11654     11653     11665
     11655     11654     11669     11670     11655     11654     11669     11671
     11655     11654     11669     11675     11656     11654     11653     11657
     11656     11654     11653     11661     11656     11654     11653     11665
     11656     11654     11669     11670     11656     11654     11669     11671
     11656     11654     11669     11675     11657     11653     11654     11669
     11657     11653     11661     11662     11657     11653     11661     11663
     11657     11653     11661     11664     11657     11653     11665     11666
     11657     11653     11665     11667     11657     11653     11665     11668
     11658     11657     11653     11661     11658     11657     11653     11665
     11659     11657     11653     11661     11659     11657     11653     11665
     11660     11657     11653     11661     11660     11657     11653     11665
     11661     11653     11654     11669     11661     11653     11665     11666
     11661     11653     11665     11667     11661     11653     11665     11668
     11662     11661     11653     11665     11663     11661     11653     11665
     11664     11661     11653     11665     11665     11653     11654     11669
     11669     11675     11672     11673     11669     11675     11672     11674
     11669     11675     11672     11676     11670     11669     11675     11672
     11671     11669     11675     11672     11672     11676     11677     11678
     11672     11676     11677     11679     11672     11676     11677     11680
     11673     11672     11676     11677     11674     11672     11676     11677
     11675     11672     11676     11677     11676     11677     11680     11681
     11676     11677     11680     11682     11676     11677     11680     11688
     11677     11680     11682     11683     11677     11680     11688     11689
     11677     11680     11688     11690     11677     11680     11688     11691
     11678     11677     11680     11681     11678     11677     11680     11682
     11678     11677     11680     11688     11679     11677     11680     11681
     11679     11677     11680     11682     11679     11677     11680     11688
     11680     11682     11683     11684     11680     11682     11683     11685
     11680     11688     11691     11692     11681     11680     11682     11683
     11681     11680     11688     11689     11681     11680     11688     11690
     11681     11680     11688     11691     11682     11680     11688     11689
     11682     11680     11688     11690     11682     11680     11688     11691
     11682     11683     11685     11686     11682     11683     11685     11687
     11682     11683     11685     11697     11683     11682     11680     11688
     11683     11685     11697     11698     11683     11685     11697     11699
     11683     11685     11697     11700     11684     11683     11685     11686
     11684     11683     11685     11687     11684     11683     11685     11697
     11685     11697     11700     11701     11685     11697     11700     11702
     11685     11697     11700     11703     11686     11685     11697     11698
     11686     11685     11697     11699     11686     11685     11697     11700
     11687     11685     11697     11698     11687     11685     11697     11699
     11687     11685     11697     11700     11688     11691     11692     11693
     11688     11691     11692     11694     11689     11688     11691     11692
     11690     11688     11691     11692     11691     11692     11694     11695
     11691     11692     11694     11696     11691     11692     11694     11744
     11692     11694     11744     11745     11692     11694     11744     11746
     11692     11694     11744     11747     11693     11692     11694     11695
     11693     11692     11694     11696     11693     11692     11694     11744
     11694     11744     11747     11748     11694     11744     11747     11749
     11694     11744     11747     11750     11695     11694     11744     11745
     11695     11694     11744     11746     11695     11694     11744     11747
     11696     11694     11744     11745     11696     11694     11744     11746
     11696     11694     11744     11747     11697     11700     11703     11704
     11697     11700     11703     11705     11697     11700     11703     11706
     11698     11697     11700     11701     11698     11697     11700     11702
     11698     11697     11700     11703     11699     11697     11700     11701
     11699     11697     11700     11702     11699     11697     11700     11703
     11700     11703     11706     11707     11700     11703     11706     11708
     11700     11703     11706     11709     11701     11700     11703     11704
     11701     11700     11703     11705     11701     11700     11703     11706
     11702     11700     11703     11704     11702     11700     11703     11705
     11702     11700     11703     11706     11703     11706     11709     11710
     11703     11706     11709     11711     11703     11706     11709     11712
     11704     11703     11706     11707     11704     11703     11706     11708
     11704     11703     11706     11709     11705     11703     11706     11707
     11705     11703     11706     11708     11705     11703     11706     11709
     11706     11709     11712     11713     11706     11709     11712     11714
     11706     11709     11712     11715     11707     11706     11709     11710
     11707     11706     11709     11711     11707     11706     11709     11712
     11708     11706     11709     11710     11708     11706     11709     11711
     11708     11706     11709     11712     11709     11712     11715     11716
     11709     11712     11715     11717     11710     11709     11712     11713
     11710     11709     11712     11714     11710     11709     11712     11715
     11711     11709     11712     11713     11711     11709     11712     11714
     11711     11709     11712     11715     11712     11715     11717     11718
     11712     11715     11717     11719     11713     11712     11715     11716
     11713     11712     11715     11717     11714     11712     11715     11716
     11714     11712     11715     11717     11715     11717     11719     11720
     11715     11717     11719     11721     11715     11717     11719     11722
     11716     11715     11717     11718     11716     11715     11717     11719
     11717     11719     11722     11723     11717     11719     11722     11724
     11717     11719     11722     11725     11718     11717     11719     11720
     11718     11717     11719     11721     11718     11717     11719     11722
     11719     11722     11725     11726     11719     11722     11725     11727
     11719     11722     11725     11728     11720     11719     11722     11723
     11720     11719     11722     11724     11720     11719     11722     11725
     11721     11719     11722     11723     11721     11719     11722     11724
     11721     11719     11722     11725     11722     11725     11728     11729
     11722     11725     11728     11730     11722     11725     11728     11731
     11723     11722     11725     11726     11723     11722     11725     11727
     11723     11722     11725     11728     11724     11722     11725     11726
     11724     11722     11725     11727     11724     11722     11725     11728
     11725     11728     11731     11732     11725     11728     11731     11733
     11725     11728     11731     11734     11726     11725     11728     11729
     11726     11725     11728     11730     11726     11725     11728     11731
     11727     11725     11728     11729     11727     11725     11728     11730
     11727     11725     11728     11731     11728     11731     11734     11735
     11728     11731     11734     11736     11728     11731     11734     11737
     11729     11728     11731     11732     11729     11728     11731     11733
     11729     11728     11731     11734     11730     11728     11731     11732
     11730     11728     11731     11733     11730     11728     11731     11734
     11731     11734     11737     11738     11731     11734     11737     11739
     11731     11734     11737     11740     11732     11731     11734     11735
     11732     11731     11734     11736     11732     11731     11734     11737
     11733     11731     11734     11735     11733     11731     11734     11736
     11733     11731     11734     11737     11734     11737     11740     11741
     11734     11737     11740     11742     11734     11737     11740     11743
     11735     11734     11737     11738     11735     11734     11737     11739
     11735     11734     11737     11740     11736     11734     11737     11738
     11736     11734     11737     11739     11736     11734     11737     11740
     11738     11737     11740     11741     11738     11737     11740     11742
     11738     11737     11740     11743     11739     11737     11740     11741
     11739     11737     11740     11742     11739     11737     11740     11743
     11744     11747     11750     11751     11744     11747     11750     11752
     11744     11747     11750     11753     11745     11744     11747     11748
     11745     11744     11747     11749     11745     11744     11747     11750
     11746     11744     11747     11748     11746     11744     11747     11749
     11746     11744     11747     11750     11747     11750     11753     11754
     11747     11750     11753     11755     11747     11750     11753     11756
     11748     11747     11750     11751     11748     11747     11750     11752
     11748     11747     11750     11753     11749     11747     11750     11751
     11749     11747     11750     11752     11749     11747     11750     11753
     11750     11753     11756     11757     11750     11753     11756     11758
     11750     11753     11756     11759     11751     11750     11753     11754
     11751     11750     11753     11755     11751     11750     11753     11756
     11752     11750     11753     11754     11752     11750     11753     11755
     11752     11750     11753     11756     11753     11756     11759     11760
     11753     11756     11759     11761     11753     11756     11759     11762
     11754     11753     11756     11757     11754     11753     11756     11758
     11754     11753     11756     11759     11755     11753     11756     11757
     11755     11753     11756     11758     11755     11753     11756     11759
     11756     11759     11762     11763     11756     11759     11762     11764
     11756     11759     11762     11765     11757     11756     11759     11760
     11757     11756     11759     11761     11757     11756     11759     11762
     11758     11756     11759     11760     11758     11756     11759     11761
     11758     11756     11759     11762     11759     11762     11765     11766
     11759     11762     11765     11767     11759     11762     11765     11768
     11760     11759     11762     11763     11760     11759     11762     11764
     11760     11759     11762     11765     11761     11759     11762     11763
     11761     11759     11762     11764     11761     11759     11762     11765
     11762     11765     11768     11769     11762     11765     11768     11770
     11762     11765     11768     11771     11763     11762     11765     11766
     11763     11762     11765     11767     11763     11762     11765     11768
     11764     11762     11765     11766     11764     11762     11765     11767
     11764     11762     11765     11768     11765     11768     11771     11772
     11765     11768     11771     11773     11765     11768     11771     11774
     11766     11765     11768     11769     11766     11765     11768     11770
     11766     11765     11768     11771     11767     11765     11768     11769
     11767     11765     11768     11770     11767     11765     11768     11771
     11768     11771     11774     11775     11768     11771     11774     11776
     11768     11771     11774     11777     11769     11768     11771     11772
     11769     11768     11771     11773     11769     11768     11771     11774
     11770     11768     11771     11772     11770     11768     11771     11773
     11770     11768     11771     11774     11771     11774     11777     11778
     11771     11774     11777     11779     11771     11774     11777     11780
     11772     11771     11774     11775     11772     11771     11774     11776
     11772     11771     11774     11777     11773     11771     11774     11775
     11773     11771     11774     11776     11773     11771     11774     11777
     11774     11777     11780     11781     11774     11777     11780     11782
     11774     11777     11780     11783     11775     11774     11777     11778
     11775     11774     11777     11779     11775     11774     11777     11780
     11776     11774     11777     11778     11776     11774     11777     11779
     11776     11774     11777     11780     11777     11780     11783     11784
     11777     11780     11783     11785     11777     11780     11783     11786
     11778     11777     11780     11781     11778     11777     11780     11782
     11778     11777     11780     11783     11779     11777     11780     11781
     11779     11777     11780     11782     11779     11777     11780     11783
     11781     11780     11783     11784     11781     11780     11783     11785
     11781     11780     11783     11786     11782     11780     11783     11784
     11782     11780     11783     11785     11782     11780     11783     11786
     11787     11788     11803     11804     11787     11788     11803     11805
     11787     11788     11803     11809     11788     11787     11791     11792
     11788     11787     11791     11793     11788     11787     11791     11794
     11788     11787     11795     11796     11788     11787     11795     11797
     11788     11787     11795     11798     11788     11787     11799     11800
     11788     11787     11799     11801     11788     11787     11799     11802
     11788     11803     11809     11806     11789     11788     11787     11791
     11789     11788     11787     11795     11789     11788     11787     11799
     11789     11788     11803     11804     11789     11788     11803     11805
     11789     11788     11803     11809     11790     11788     11787     11791
     11790     11788     11787     11795     11790     11788     11787     11799
     11790     11788     11803     11804     11790     11788     11803     11805
     11790     11788     11803     11809     11791     11787     11788     11803
     11791     11787     11795     11796     11791     11787     11795     11797
     11791     11787     11795     11798     11791     11787     11799     11800
     11791     11787     11799     11801     11791     11787     11799     11802
     11792     11791     11787     11795     11792     11791     11787     11799
     11793     11791     11787     11795     11793     11791     11787     11799
     11794     11791     11787     11795     11794     11791     11787     11799
     11795     11787     11788     11803     11795     11787     11799     11800
     11795     11787     11799     11801     11795     11787     11799     11802
     11796     11795     11787     11799     11797     11795     11787     11799
     11798     11795     11787     11799     11799     11787     11788     11803
     11803     11809     11806     11807     11803     11809     11806     11808
     11803     11809     11806     11810     11804     11803     11809     11806
     11805     11803     11809     11806     11806     11810     11811     11812
     11806     11810     11811     11813     11806     11810     11811     11814
     11807     11806     11810     11811     11808     11806     11810     11811
     11809     11806     11810     11811     11810     11811     11814     11815
     11810     11811     11814     11816     11810     11811     11814     11822
     11811     11814     11816     11817     11811     11814     11822     11823
     11811     11814     11822     11824     11811     11814     11822     11825
     11812     11811     11814     11815     11812     11811     11814     11816
     11812     11811     11814     11822     11813     11811     11814     11815
     11813     11811     11814     11816     11813     11811     11814     11822
     11814     11816     11817     11818     11814     11816     11817     11819
     11814     11822     11825     11826     11815     11814     11816     11817
     11815     11814     11822     11823     11815     11814     11822     11824
     11815     11814     11822     11825     11816     11814     11822     11823
     11816     11814     11822     11824     11816     11814     11822     11825
     11816     11817     11819     11820     11816     11817     11819     11821
     11816     11817     11819     11831     11817     11816     11814     11822
     11817     11819     11831     11832     11817     11819     11831     11833
     11817     11819     11831     11834     11818     11817     11819     11820
     11818     11817     11819     11821     11818     11817     11819     11831
     11819     11831     11834     11835     11819     11831     11834     11836
     11819     11831     11834     11837     11820     11819     11831     11832
     11820     11819     11831     11833     11820     11819     11831     11834
     11821     11819     11831     11832     11821     11819     11831     11833
     11821     11819     11831     11834     11822     11825     11826     11827
     11822     11825     11826     11828     11823     11822     11825     11826
     11824     11822     11825     11826     11825     11826     11828     11829
     11825     11826     11828     11830     11825     11826     11828     11878
     11826     11828     11878     11879     11826     11828     11878     11880
     11826     11828     11878     11881     11827     11826     11828     11829
     11827     11826     11828     11830     11827     11826     11828     11878
     11828     11878     11881     11882     11828     11878     11881     11883
     11828     11878     11881     11884     11829     11828     11878     11879
     11829     11828     11878     11880     11829     11828     11878     11881
     11830     11828     11878     11879     11830     11828     11878     11880
     11830     11828     11878     11881     11831     11834     11837     11838
     11831     11834     11837     11839     11831     11834     11837     11840
     11832     11831     11834     11835     11832     11831     11834     11836
     11832     11831     11834     11837     11833     11831     11834     11835
     11833     11831     11834     11836     11833     11831     11834     11837
     11834     11837     11840     11841     11834     11837     11840     11842
     11834     11837     11840     11843     11835     11834     11837     11838
     11835     11834     11837     11839     11835     11834     11837     11840
     11836     11834     11837     11838     11836     11834     11837     11839
     11836     11834     11837     11840     11837     11840     11843     11844
     11837     11840     11843     11845     11837     11840     11843     11846
     11838     11837     11840     11841     11838     11837     11840     11842
     11838     11837     11840     11843     11839     11837     11840     11841
     11839     11837     11840     11842     11839     11837     11840     11843
     11840     11843     11846     11847     11840     11843     11846     11848
     11840     11843     11846     11849     11841     11840     11843     11844
     11841     11840     11843     11845     11841     11840     11843     11846
     11842     11840     11843     11844     11842     11840     11843     11845
     11842     11840     11843     11846     11843     11846     11849     11850
     11843     11846     11849     11851     11844     11843     11846     11847
     11844     11843     11846     11848     11844     11843     11846     11849
     11845     11843     11846     11847     11845     11843     11846     11848
     11845     11843     11846     11849     11846     11849     11851     11852
     11846     11849     11851     11853     11847     11846     11849     11850
     11847     11846     11849     11851     11848     11846     11849     11850
     11848     11846     11849     11851     11849     11851     11853     11854
     11849     11851     11853     11855     11849     11851     11853     11856
     11850     11849     11851     11852     11850     11849     11851     11853
     11851     11853     11856     11857     11851     11853     11856     11858
     11851     11853     11856     11859     11852     11851     11853     11854
     11852     11851     11853     11855     11852     11851     11853     11856
     11853     11856     11859     11860     11853     11856     11859     11861
     11853     11856     11859     11862     11854     11853     11856     11857
     11854     11853     11856     11858     11854     11853     11856     11859
     11855     11853     11856     11857     11855     11853     11856     11858
     11855     11853     11856     11859     11856     11859     11862     11863
     11856     11859     11862     11864     11856     11859     11862     11865
     11857     11856     11859     11860     11857     11856     11859     11861
     11857     11856     11859     11862     11858     11856     11859     11860
     11858     11856     11859     11861     11858     11856     11859     11862
     11859     11862     11865     11866     11859     11862     11865     11867
     11859     11862     11865     11868     11860     11859     11862     11863
     11860     11859     11862     11864     11860     11859     11862     11865
     11861     11859     11862     11863     11861     11859     11862     11864
     11861     11859     11862     11865     11862     11865     11868     11869
     11862     11865     11868     11870     11862     11865     11868     11871
     11863     11862     11865     11866     11863     11862     11865     11867
     11863     11862     11865     11868     11864     11862     11865     11866
     11864     11862     11865     11867     11864     11862     11865     11868
     11865     11868     11871     11872     11865     11868     11871     11873
     11865     11868     11871     11874     11866     11865     11868     11869
     11866     11865     11868     11870     11866     11865     11868     11871
     11867     11865     11868     11869     11867     11865     11868     11870
     11867     11865     11868     11871     11868     11871     11874     11875
     11868     11871     11874     11876     11868     11871     11874     11877
     11869     11868     11871     11872     11869     11868     11871     11873
     11869     11868     11871     11874     11870     11868     11871     11872
     11870     11868     11871     11873     11870     11868     11871     11874
     11872     11871     11874     11875     11872     11871     11874     11876
     11872     11871     11874     11877     11873     11871     11874     11875
     11873     11871     11874     11876     11873     11871     11874     11877
     11878     11881     11884     11885     11878     11881     11884     11886
     11878     11881     11884     11887     11879     11878     11881     11882
     11879     11878     11881     11883     11879     11878     11881     11884
     11880     11878     11881     11882     11880     11878     11881     11883
     11880     11878     11881     11884     11881     11884     11887     11888
     11881     11884     11887     11889     11881     11884     11887     11890
     11882     11881     11884     11885     11882     11881     11884     11886
     11882     11881     11884     11887     11883     11881     11884     11885
     11883     11881     11884     11886     11883     11881     11884     11887
     11884     11887     11890     11891     11884     11887     11890     11892
     11884     11887     11890     11893     11885     11884     11887     11888
     11885     11884     11887     11889     11885     11884     11887     11890
     11886     11884     11887     11888     11886     11884     11887     11889
     11886     11884     11887     11890     11887     11890     11893     11894
     11887     11890     11893     11895     11887     11890     11893     11896
     11888     11887     11890     11891     11888     11887     11890     11892
     11888     11887     11890     11893     11889     11887     11890     11891
     11889     11887     11890     11892     11889     11887     11890     11893
     11890     11893     11896     11897     11890     11893     11896     11898
     11890     11893     11896     11899     11891     11890     11893     11894
     11891     11890     11893     11895     11891     11890     11893     11896
     11892     11890     11893     11894     11892     11890     11893     11895
     11892     11890     11893     11896     11893     11896     11899     11900
     11893     11896     11899     11901     11893     11896     11899     11902
     11894     11893     11896     11897     11894     11893     11896     11898
     11894     11893     11896     11899     11895     11893     11896     11897
     11895     11893     11896     11898     11895     11893     11896     11899
     11896     11899     11902     11903     11896     11899     11902     11904
     11896     11899     11902     11905     11897     11896     11899     11900
     11897     11896     11899     11901     11897     11896     11899     11902
     11898     11896     11899     11900     11898     11896     11899     11901
     11898     11896     11899     11902     11899     11902     11905     11906
     11899     11902     11905     11907     11899     11902     11905     11908
     11900     11899     11902     11903     11900     11899     11902     11904
     11900     11899     11902     11905     11901     11899     11902     11903
     11901     11899     11902     11904     11901     11899     11902     11905
     11902     11905     11908     11909     11902     11905     11908     11910
     11902     11905     11908     11911     11903     11902     11905     11906
     11903     11902     11905     11907     11903     11902     11905     11908
     11904     11902     11905     11906     11904     11902     11905     11907
     11904     11902     11905     11908     11905     11908     11911     11912
     11905     11908     11911     11913     11905     11908     11911     11914
     11906     11905     11908     11909     11906     11905     11908     11910
     11906     11905     11908     11911     11907     11905     11908     11909
     11907     11905     11908     11910     11907     11905     11908     11911
     11908     11911     11914     11915     11908     11911     11914     11916
     11908     11911     11914     11917     11909     11908     11911     11912
     11909     11908     11911     11913     11909     11908     11911     11914
     11910     11908     11911     11912     11910     11908     11911     11913
     11910     11908     11911     11914     11911     11914     11917     11918
     11911     11914     11917     11919     11911     11914     11917     11920
     11912     11911     11914     11915     11912     11911     11914     11916
     11912     11911     11914     11917     11913     11911     11914     11915
     11913     11911     11914     11916     11913     11911     11914     11917
     11915     11914     11917     11918     11915     11914     11917     11919
     11915     11914     11917     11920     11916     11914     11917     11918
     11916     11914     11917     11919     11916     11914     11917     11920
     11921     11922     11937     11938     11921     11922     11937     11939
     11921     11922     11937     11943     11922     11921     11925     11926
     11922     11921     11925     11927     11922     11921     11925     11928
     11922     11921     11929     11930     11922     11921     11929     11931
     11922     11921     11929     11932     11922     11921     11933     11934
     11922     11921     11933     11935     11922     11921     11933     11936
     11922     11937     11943     11940     11923     11922     11921     11925
     11923     11922     11921     11929     11923     11922     11921     11933
     11923     11922     11937     11938     11923     11922     11937     11939
     11923     11922     11937     11943     11924     11922     11921     11925
     11924     11922     11921     11929     11924     11922     11921     11933
     11924     11922     11937     11938     11924     11922     11937     11939
     11924     11922     11937     11943     11925     11921     11922     11937
     11925     11921     11929     11930     11925     11921     11929     11931
     11925     11921     11929     11932     11925     11921     11933     11934
     11925     11921     11933     11935     11925     11921     11933     11936
     11926     11925     11921     11929     11926     11925     11921     11933
     11927     11925     11921     11929     11927     11925     11921     11933
     11928     11925     11921     11929     11928     11925     11921     11933
     11929     11921     11922     11937     11929     11921     11933     11934
     11929     11921     11933     11935     11929     11921     11933     11936
     11930     11929     11921     11933     11931     11929     11921     11933
     11932     11929     11921     11933     11933     11921     11922     11937
     11937     11943     11940     11941     11937     11943     11940     11942
     11937     11943     11940     11944     11938     11937     11943     11940
     11939     11937     11943     11940     11940     11944     11945     11946
     11940     11944     11945     11947     11940     11944     11945     11948
     11941     11940     11944     11945     11942     11940     11944     11945
     11943     11940     11944     11945     11944     11945     11948     11949
     11944     11945     11948     11950     11944     11945     11948     11956
     11945     11948     11950     11951     11945     11948     11956     11957
     11945     11948     11956     11958     11945     11948     11956     11959
     11946     11945     11948     11949     11946     11945     11948     11950
     11946     11945     11948     11956     11947     11945     11948     11949
     11947     11945     11948     11950     11947     11945     11948     11956
     11948     11950     11951     11952     11948     11950     11951     11953
     11948     11956     11959     11960     11949     11948     11950     11951
     11949     11948     11956     11957     11949     11948     11956     11958
     11949     11948     11956     11959     11950     11948     11956     11957
     11950     11948     11956     11958     11950     11948     11956     11959
     11950     11951     11953     11954     11950     11951     11953     11955
     11950     11951     11953     11965     11951     11950     11948     11956
     11951     11953     11965     11966     11951     11953     11965     11967
     11951     11953     11965     11968     11952     11951     11953     11954
     11952     11951     11953     11955     11952     11951     11953     11965
     11953     11965     11968     11969     11953     11965     11968     11970
     11953     11965     11968     11971     11954     11953     11965     11966
     11954     11953     11965     11967     11954     11953     11965     11968
     11955     11953     11965     11966     11955     11953     11965     11967
     11955     11953     11965     11968     11956     11959     11960     11961
     11956     11959     11960     11962     11957     11956     11959     11960
     11958     11956     11959     11960     11959     11960     11962     11963
     11959     11960     11962     11964     11959     11960     11962     12012
     11960     11962     12012     12013     11960     11962     12012     12014
     11960     11962     12012     12015     11961     11960     11962     11963
     11961     11960     11962     11964     11961     11960     11962     12012
     11962     12012     12015     12016     11962     12012     12015     12017
     11962     12012     12015     12018     11963     11962     12012     12013
     11963     11962     12012     12014     11963     11962     12012     12015
     11964     11962     12012     12013     11964     11962     12012     12014
     11964     11962     12012     12015     11965     11968     11971     11972
     11965     11968     11971     11973     11965     11968     11971     11974
     11966     11965     11968     11969     11966     11965     11968     11970
     11966     11965     11968     11971     11967     11965     11968     11969
     11967     11965     11968     11970     11967     11965     11968     11971
     11968     11971     11974     11975     11968     11971     11974     11976
     11968     11971     11974     11977     11969     11968     11971     11972
     11969     11968     11971     11973     11969     11968     11971     11974
     11970     11968     11971     11972     11970     11968     11971     11973
     11970     11968     11971     11974     11971     11974     11977     11978
     11971     11974     11977     11979     11971     11974     11977     11980
     11972     11971     11974     11975     11972     11971     11974     11976
     11972     11971     11974     11977     11973     11971     11974     11975
     11973     11971     11974     11976     11973     11971     11974     11977
     11974     11977     11980     11981     11974     11977     11980     11982
     11974     11977     11980     11983     11975     11974     11977     11978
     11975     11974     11977     11979     11975     11974     11977     11980
     11976     11974     11977     11978     11976     11974     11977     11979
     11976     11974     11977     11980     11977     11980     11983     11984
     11977     11980     11983     11985     11978     11977     11980     11981
     11978     11977     11980     11982     11978     11977     11980     11983
     11979     11977     11980     11981     11979     11977     11980     11982
     11979     11977     11980     11983     11980     11983     11985     11986
     11980     11983     11985     11987     11981     11980     11983     11984
     11981     11980     11983     11985     11982     11980     11983     11984
     11982     11980     11983     11985     11983     11985     11987     11988
     11983     11985     11987     11989     11983     11985     11987     11990
     11984     11983     11985     11986     11984     11983     11985     11987
     11985     11987     11990     11991     11985     11987     11990     11992
     11985     11987     11990     11993     11986     11985     11987     11988
     11986     11985     11987     11989     11986     11985     11987     11990
     11987     11990     11993     11994     11987     11990     11993     11995
     11987     11990     11993     11996     11988     11987     11990     11991
     11988     11987     11990     11992     11988     11987     11990     11993
     11989     11987     11990     11991     11989     11987     11990     11992
     11989     11987     11990     11993     11990     11993     11996     11997
     11990     11993     11996     11998     11990     11993     11996     11999
     11991     11990     11993     11994     11991     11990     11993     11995
     11991     11990     11993     11996     11992     11990     11993     11994
     11992     11990     11993     11995     11992     11990     11993     11996
     11993     11996     11999     12000     11993     11996     11999     12001
     11993     11996     11999     12002     11994     11993     11996     11997
     11994     11993     11996     11998     11994     11993     11996     11999
     11995     11993     11996     11997     11995     11993     11996     11998
     11995     11993     11996     11999     11996     11999     12002     12003
     11996     11999     12002     12004     11996     11999     12002     12005
     11997     11996     11999     12000     11997     11996     11999     12001
     11997     11996     11999     12002     11998     11996     11999     12000
     11998     11996     11999     12001     11998     11996     11999     12002
     11999     12002     12005     12006     11999     12002     12005     12007
     11999     12002     12005     12008     12000     11999     12002     12003
     12000     11999     12002     12004     12000     11999     12002     12005
     12001     11999     12002     12003     12001     11999     12002     12004
     12001     11999     12002     12005     12002     12005     12008     12009
     12002     12005     12008     12010     12002     12005     12008     12011
     12003     12002     12005     12006     12003     12002     12005     12007
     12003     12002     12005     12008     12004     12002     12005     12006
     12004     12002     12005     12007     12004     12002     12005     12008
     12006     12005     12008     12009     12006     12005     12008     12010
     12006     12005     12008     12011     12007     12005     12008     12009
     12007     12005     12008     12010     12007     12005     12008     12011
     12012     12015     12018     12019     12012     12015     12018     12020
     12012     12015     12018     12021     12013     12012     12015     12016
     12013     12012     12015     12017     12013     12012     12015     12018
     12014     12012     12015     12016     12014     12012     12015     12017
     12014     12012     12015     12018     12015     12018     12021     12022
     12015     12018     12021     12023     12015     12018     12021     12024
     12016     12015     12018     12019     12016     12015     12018     12020
     12016     12015     12018     12021     12017     12015     12018     12019
     12017     12015     12018     12020     12017     12015     12018     12021
     12018     12021     12024     12025     12018     12021     12024     12026
     12018     12021     12024     12027     12019     12018     12021     12022
     12019     12018     12021     12023     12019     12018     12021     12024
     12020     12018     12021     12022     12020     12018     12021     12023
     12020     12018     12021     12024     12021     12024     12027     12028
     12021     12024     12027     12029     12021     12024     12027     12030
     12022     12021     12024     12025     12022     12021     12024     12026
     12022     12021     12024     12027     12023     12021     12024     12025
     12023     12021     12024     12026     12023     12021     12024     12027
     12024     12027     12030     12031     12024     12027     12030     12032
     12024     12027     12030     12033     12025     12024     12027     12028
     12025     12024     12027     12029     12025     12024     12027     12030
     12026     12024     12027     12028     12026     12024     12027     12029
     12026     12024     12027     12030     12027     12030     12033     12034
     12027     12030     12033     12035     12027     12030     12033     12036
     12028     12027     12030     12031     12028     12027     12030     12032
     12028     12027     12030     12033     12029     12027     12030     12031
     12029     12027     12030     12032     12029     12027     12030     12033
     12030     12033     12036     12037     12030     12033     12036     12038
     12030     12033     12036     12039     12031     12030     12033     12034
     12031     12030     12033     12035     12031     12030     12033     12036
     12032     12030     12033     12034     12032     12030     12033     12035
     12032     12030     12033     12036     12033     12036     12039     12040
     12033     12036     12039     12041     12033     12036     12039     12042
     12034     12033     12036     12037     12034     12033     12036     12038
     12034     12033     12036     12039     12035     12033     12036     12037
     12035     12033     12036     12038     12035     12033     12036     12039
     12036     12039     12042     12043     12036     12039     12042     12044
     12036     12039     12042     12045     12037     12036     12039     12040
     12037     12036     12039     12041     12037     12036     12039     12042
     12038     12036     12039     12040     12038     12036     12039     12041
     12038     12036     12039     12042     12039     12042     12045     12046
     12039     12042     12045     12047     12039     12042     12045     12048
     12040     12039     12042     12043     12040     12039     12042     12044
     12040     12039     12042     12045     12041     12039     12042     12043
     12041     12039     12042     12044     12041     12039     12042     12045
     12042     12045     12048     12049     12042     12045     12048     12050
     12042     12045     12048     12051     12043     12042     12045     12046
     12043     12042     12045     12047     12043     12042     12045     12048
     12044     12042     12045     12046     12044     12042     12045     12047
     12044     12042     12045     12048     12045     12048     12051     12052
     12045     12048     12051     12053     12045     12048     12051     12054
     12046     12045     12048     12049     12046     12045     12048     12050
     12046     12045     12048     12051     12047     12045     12048     12049
     12047     12045     12048     12050     12047     12045     12048     12051
     12049     12048     12051     12052     12049     12048     12051     12053
     12049     12048     12051     12054     12050     12048     12051     12052
     12050     12048     12051     12053     12050     12048     12051     12054
     12055     12056     12071     12072     12055     12056     12071     12073
     12055     12056     12071     12077     12056     12055     12059     12060
     12056     12055     12059     12061     12056     12055     12059     12062
     12056     12055     12063     12064     12056     12055     12063     12065
     12056     12055     12063     12066     12056     12055     12067     12068
     12056     12055     12067     12069     12056     12055     12067     12070
     12056     12071     12077     12074     12057     12056     12055     12059
     12057     12056     12055     12063     12057     12056     12055     12067
     12057     12056     12071     12072     12057     12056     12071     12073
     12057     12056     12071     12077     12058     12056     12055     12059
     12058     12056     12055     12063     12058     12056     12055     12067
     12058     12056     12071     12072     12058     12056     12071     12073
     12058     12056     12071     12077     12059     12055     12056     12071
     12059     12055     12063     12064     12059     12055     12063     12065
     12059     12055     12063     12066     12059     12055     12067     12068
     12059     12055     12067     12069     12059     12055     12067     12070
     12060     12059     12055     12063     12060     12059     12055     12067
     12061     12059     12055     12063     12061     12059     12055     12067
     12062     12059     12055     12063     12062     12059     12055     12067
     12063     12055     12056     12071     12063     12055     12067     12068
     12063     12055     12067     12069     12063     12055     12067     12070
     12064     12063     12055     12067     12065     12063     12055     12067
     12066     12063     12055     12067     12067     12055     12056     12071
     12071     12077     12074     12075     12071     12077     12074     12076
     12071     12077     12074     12078     12072     12071     12077     12074
     12073     12071     12077     12074     12074     12078     12079     12080
     12074     12078     12079     12081     12074     12078     12079     12082
     12075     12074     12078     12079     12076     12074     12078     12079
     12077     12074     12078     12079     12078     12079     12082     12083
     12078     12079     12082     12084     12078     12079     12082     12090
     12079     12082     12084     12085     12079     12082     12090     12091
     12079     12082     12090     12092     12079     12082     12090     12093
     12080     12079     12082     12083     12080     12079     12082     12084
     12080     12079     12082     12090     12081     12079     12082     12083
     12081     12079     12082     12084     12081     12079     12082     12090
     12082     12084     12085     12086     12082     12084     12085     12087
     12082     12090     12093     12094     12083     12082     12084     12085
     12083     12082     12090     12091     12083     12082     12090     12092
     12083     12082     12090     12093     12084     12082     12090     12091
     12084     12082     12090     12092     12084     12082     12090     12093
     12084     12085     12087     12088     12084     12085     12087     12089
     12084     12085     12087     12099     12085     12084     12082     12090
     12085     12087     12099     12100     12085     12087     12099     12101
     12085     12087     12099     12102     12086     12085     12087     12088
     12086     12085     12087     12089     12086     12085     12087     12099
     12087     12099     12102     12103     12087     12099     12102     12104
     12087     12099     12102     12105     12088     12087     12099     12100
     12088     12087     12099     12101     12088     12087     12099     12102
     12089     12087     12099     12100     12089     12087     12099     12101
     12089     12087     12099     12102     12090     12093     12094     12095
     12090     12093     12094     12096     12091     12090     12093     12094
     12092     12090     12093     12094     12093     12094     12096     12097
     12093     12094     12096     12098     12093     12094     12096     12146
     12094     12096     12146     12147     12094     12096     12146     12148
     12094     12096     12146     12149     12095     12094     12096     12097
     12095     12094     12096     12098     12095     12094     12096     12146
     12096     12146     12149     12150     12096     12146     12149     12151
     12096     12146     12149     12152     12097     12096     12146     12147
     12097     12096     12146     12148     12097     12096     12146     12149
     12098     12096     12146     12147     12098     12096     12146     12148
     12098     12096     12146     12149     12099     12102     12105     12106
     12099     12102     12105     12107     12099     12102     12105     12108
     12100     12099     12102     12103     12100     12099     12102     12104
     12100     12099     12102     12105     12101     12099     12102     12103
     12101     12099     12102     12104     12101     12099     12102     12105
     12102     12105     12108     12109     12102     12105     12108     12110
     12102     12105     12108     12111     12103     12102     12105     12106
     12103     12102     12105     12107     12103     12102     12105     12108
     12104     12102     12105     12106     12104     12102     12105     12107
     12104     12102     12105     12108     12105     12108     12111     12112
     12105     12108     12111     12113     12105     12108     12111     12114
     12106     12105     12108     12109     12106     12105     12108     12110
     12106     12105     12108     12111     12107     12105     12108     12109
     12107     12105     12108     12110     12107     12105     12108     12111
     12108     12111     12114     12115     12108     12111     12114     12116
     12108     12111     12114     12117     12109     12108     12111     12112
     12109     12108     12111     12113     12109     12108     12111     12114
     12110     12108     12111     12112     12110     12108     12111     12113
     12110     12108     12111     12114     12111     12114     12117     12118
     12111     12114     12117     12119     12112     12111     12114     12115
     12112     12111     12114     12116     12112     12111     12114     12117
     12113     12111     12114     12115     12113     12111     12114     12116
     12113     12111     12114     12117     12114     12117     12119     12120
     12114     12117     12119     12121     12115     12114     12117     12118
     12115     12114     12117     12119     12116     12114     12117     12118
     12116     12114     12117     12119     12117     12119     12121     12122
     12117     12119     12121     12123     12117     12119     12121     12124
     12118     12117     12119     12120     12118     12117     12119     12121
     12119     12121     12124     12125     12119     12121     12124     12126
     12119     12121     12124     12127     12120     12119     12121     12122
     12120     12119     12121     12123     12120     12119     12121     12124
     12121     12124     12127     12128     12121     12124     12127     12129
     12121     12124     12127     12130     12122     12121     12124     12125
     12122     12121     12124     12126     12122     12121     12124     12127
     12123     12121     12124     12125     12123     12121     12124     12126
     12123     12121     12124     12127     12124     12127     12130     12131
     12124     12127     12130     12132     12124     12127     12130     12133
     12125     12124     12127     12128     12125     12124     12127     12129
     12125     12124     12127     12130     12126     12124     12127     12128
     12126     12124     12127     12129     12126     12124     12127     12130
     12127     12130     12133     12134     12127     12130     12133     12135
     12127     12130     12133     12136     12128     12127     12130     12131
     12128     12127     12130     12132     12128     12127     12130     12133
     12129     12127     12130     12131     12129     12127     12130     12132
     12129     12127     12130     12133     12130     12133     12136     12137
     12130     12133     12136     12138     12130     12133     12136     12139
     12131     12130     12133     12134     12131     12130     12133     12135
     12131     12130     12133     12136     12132     12130     12133     12134
     12132     12130     12133     12135     12132     12130     12133     12136
     12133     12136     12139     12140     12133     12136     12139     12141
     12133     12136     12139     12142     12134     12133     12136     12137
     12134     12133     12136     12138     12134     12133     12136     12139
     12135     12133     12136     12137     12135     12133     12136     12138
     12135     12133     12136     12139     12136     12139     12142     12143
     12136     12139     12142     12144     12136     12139     12142     12145
     12137     12136     12139     12140     12137     12136     12139     12141
     12137     12136     12139     12142     12138     12136     12139     12140
     12138     12136     12139     12141     12138     12136     12139     12142
     12140     12139     12142     12143     12140     12139     12142     12144
     12140     12139     12142     12145     12141     12139     12142     12143
     12141     12139     12142     12144     12141     12139     12142     12145
     12146     12149     12152     12153     12146     12149     12152     12154
     12146     12149     12152     12155     12147     12146     12149     12150
     12147     12146     12149     12151     12147     12146     12149     12152
     12148     12146     12149     12150     12148     12146     12149     12151
     12148     12146     12149     12152     12149     12152     12155     12156
     12149     12152     12155     12157     12149     12152     12155     12158
     12150     12149     12152     12153     12150     12149     12152     12154
     12150     12149     12152     12155     12151     12149     12152     12153
     12151     12149     12152     12154     12151     12149     12152     12155
     12152     12155     12158     12159     12152     12155     12158     12160
     12152     12155     12158     12161     12153     12152     12155     12156
     12153     12152     12155     12157     12153     12152     12155     12158
     12154     12152     12155     12156     12154     12152     12155     12157
     12154     12152     12155     12158     12155     12158     12161     12162
     12155     12158     12161     12163     12155     12158     12161     12164
     12156     12155     12158     12159     12156     12155     12158     12160
     12156     12155     12158     12161     12157     12155     12158     12159
     12157     12155     12158     12160     12157     12155     12158     12161
     12158     12161     12164     12165     12158     12161     12164     12166
     12158     12161     12164     12167     12159     12158     12161     12162
     12159     12158     12161     12163     12159     12158     12161     12164
     12160     12158     12161     12162     12160     12158     12161     12163
     12160     12158     12161     12164     12161     12164     12167     12168
     12161     12164     12167     12169     12161     12164     12167     12170
     12162     12161     12164     12165     12162     12161     12164     12166
     12162     12161     12164     12167     12163     12161     12164     12165
     12163     12161     12164     12166     12163     12161     12164     12167
     12164     12167     12170     12171     12164     12167     12170     12172
     12164     12167     12170     12173     12165     12164     12167     12168
     12165     12164     12167     12169     12165     12164     12167     12170
     12166     12164     12167     12168     12166     12164     12167     12169
     12166     12164     12167     12170     12167     12170     12173     12174
     12167     12170     12173     12175     12167     12170     12173     12176
     12168     12167     12170     12171     12168     12167     12170     12172
     12168     12167     12170     12173     12169     12167     12170     12171
     12169     12167     12170     12172     12169     12167     12170     12173
     12170     12173     12176     12177     12170     12173     12176     12178
     12170     12173     12176     12179     12171     12170     12173     12174
     12171     12170     12173     12175     12171     12170     12173     12176
     12172     12170     12173     12174     12172     12170     12173     12175
     12172     12170     12173     12176     12173     12176     12179     12180
     12173     12176     12179     12181     12173     12176     12179     12182
     12174     12173     12176     12177     12174     12173     12176     12178
     12174     12173     12176     12179     12175     12173     12176     12177
     12175     12173     12176     12178     12175     12173     12176     12179
     12176     12179     12182     12183     12176     12179     12182     12184
     12176     12179     12182     12185     12177     12176     12179     12180
     12177     12176     12179     12181     12177     12176     12179     12182
     12178     12176     12179     12180     12178     12176     12179     12181
     12178     12176     12179     12182     12179     12182     12185     12186
     12179     12182     12185     12187     12179     12182     12185     12188
     12180     12179     12182     12183     12180     12179     12182     12184
     12180     12179     12182     12185     12181     12179     12182     12183
     12181     12179     12182     12184     12181     12179     12182     12185
     12183     12182     12185     12186     12183     12182     12185     12187
     12183     12182     12185     12188     12184     12182     12185     12186
     12184     12182     12185     12187     12184     12182     12185     12188
     12189     12190     12205     12206     12189     12190     12205     12207
     12189     12190     12205     12211     12190     12189     12193     12194
     12190     12189     12193     12195     12190     12189     12193     12196
     12190     12189     12197     12198     12190     12189     12197     12199
     12190     12189     12197     12200     12190     12189     12201     12202
     12190     12189     12201     12203     12190     12189     12201     12204
     12190     12205     12211     12208     12191     12190     12189     12193
     12191     12190     12189     12197     12191     12190     12189     12201
     12191     12190     12205     12206     12191     12190     12205     12207
     12191     12190     12205     12211     12192     12190     12189     12193
     12192     12190     12189     12197     12192     12190     12189     12201
     12192     12190     12205     12206     12192     12190     12205     12207
     12192     12190     12205     12211     12193     12189     12190     12205
     12193     12189     12197     12198     12193     12189     12197     12199
     12193     12189     12197     12200     12193     12189     12201     12202
     12193     12189     12201     12203     12193     12189     12201     12204
     12194     12193     12189     12197     12194     12193     12189     12201
     12195     12193     12189     12197     12195     12193     12189     12201
     12196     12193     12189     12197     12196     12193     12189     12201
     12197     12189     12190     12205     12197     12189     12201     12202
     12197     12189     12201     12203     12197     12189     12201     12204
     12198     12197     12189     12201     12199     12197     12189     12201
     12200     12197     12189     12201     12201     12189     12190     12205
     12205     12211     12208     12209     12205     12211     12208     12210
     12205     12211     12208     12212     12206     12205     12211     12208
     12207     12205     12211     12208     12208     12212     12213     12214
     12208     12212     12213     12215     12208     12212     12213     12216
     12209     12208     12212     12213     12210     12208     12212     12213
     12211     12208     12212     12213     12212     12213     12216     12217
     12212     12213     12216     12218     12212     12213     12216     12224
     12213     12216     12218     12219     12213     12216     12224     12225
     12213     12216     12224     12226     12213     12216     12224     12227
     12214     12213     12216     12217     12214     12213     12216     12218
     12214     12213     12216     12224     12215     12213     12216     12217
     12215     12213     12216     12218     12215     12213     12216     12224
     12216     12218     12219     12220     12216     12218     12219     12221
     12216     12224     12227     12228     12217     12216     12218     12219
     12217     12216     12224     12225     12217     12216     12224     12226
     12217     12216     12224     12227     12218     12216     12224     12225
     12218     12216     12224     12226     12218     12216     12224     12227
     12218     12219     12221     12222     12218     12219     12221     12223
     12218     12219     12221     12233     12219     12218     12216     12224
     12219     12221     12233     12234     12219     12221     12233     12235
     12219     12221     12233     12236     12220     12219     12221     12222
     12220     12219     12221     12223     12220     12219     12221     12233
     12221     12233     12236     12237     12221     12233     12236     12238
     12221     12233     12236     12239     12222     12221     12233     12234
     12222     12221     12233     12235     12222     12221     12233     12236
     12223     12221     12233     12234     12223     12221     12233     12235
     12223     12221     12233     12236     12224     12227     12228     12229
     12224     12227     12228     12230     12225     12224     12227     12228
     12226     12224     12227     12228     12227     12228     12230     12231
     12227     12228     12230     12232     12227     12228     12230     12280
     12228     12230     12280     12281     12228     12230     12280     12282
     12228     12230     12280     12283     12229     12228     12230     12231
     12229     12228     12230     12232     12229     12228     12230     12280
     12230     12280     12283     12284     12230     12280     12283     12285
     12230     12280     12283     12286     12231     12230     12280     12281
     12231     12230     12280     12282     12231     12230     12280     12283
     12232     12230     12280     12281     12232     12230     12280     12282
     12232     12230     12280     12283     12233     12236     12239     12240
     12233     12236     12239     12241     12233     12236     12239     12242
     12234     12233     12236     12237     12234     12233     12236     12238
     12234     12233     12236     12239     12235     12233     12236     12237
     12235     12233     12236     12238     12235     12233     12236     12239
     12236     12239     12242     12243     12236     12239     12242     12244
     12236     12239     12242     12245     12237     12236     12239     12240
     12237     12236     12239     12241     12237     12236     12239     12242
     12238     12236     12239     12240     12238     12236     12239     12241
     12238     12236     12239     12242     12239     12242     12245     12246
     12239     12242     12245     12247     12239     12242     12245     12248
     12240     12239     12242     12243     12240     12239     12242     12244
     12240     12239     12242     12245     12241     12239     12242     12243
     12241     12239     12242     12244     12241     12239     12242     12245
     12242     12245     12248     12249     12242     12245     12248     12250
     12242     12245     12248     12251     12243     12242     12245     12246
     12243     12242     12245     12247     12243     12242     12245     12248
     12244     12242     12245     12246     12244     12242     12245     12247
     12244     12242     12245     12248     12245     12248     12251     12252
     12245     12248     12251     12253     12246     12245     12248     12249
     12246     12245     12248     12250     12246     12245     12248     12251
     12247     12245     12248     12249     12247     12245     12248     12250
     12247     12245     12248     12251     12248     12251     12253     12254
     12248     12251     12253     12255     12249     12248     12251     12252
     12249     12248     12251     12253     12250     12248     12251     12252
     12250     12248     12251     12253     12251     12253     12255     12256
     12251     12253     12255     12257     12251     12253     12255     12258
     12252     12251     12253     12254     12252     12251     12253     12255
     12253     12255     12258     12259     12253     12255     12258     12260
     12253     12255     12258     12261     12254     12253     12255     12256
     12254     12253     12255     12257     12254     12253     12255     12258
     12255     12258     12261     12262     12255     12258     12261     12263
     12255     12258     12261     12264     12256     12255     12258     12259
     12256     12255     12258     12260     12256     12255     12258     12261
     12257     12255     12258     12259     12257     12255     12258     12260
     12257     12255     12258     12261     12258     12261     12264     12265
     12258     12261     12264     12266     12258     12261     12264     12267
     12259     12258     12261     12262     12259     12258     12261     12263
     12259     12258     12261     12264     12260     12258     12261     12262
     12260     12258     12261     12263     12260     12258     12261     12264
     12261     12264     12267     12268     12261     12264     12267     12269
     12261     12264     12267     12270     12262     12261     12264     12265
     12262     12261     12264     12266     12262     12261     12264     12267
     12263     12261     12264     12265     12263     12261     12264     12266
     12263     12261     12264     12267     12264     12267     12270     12271
     12264     12267     12270     12272     12264     12267     12270     12273
     12265     12264     12267     12268     12265     12264     12267     12269
     12265     12264     12267     12270     12266     12264     12267     12268
     12266     12264     12267     12269     12266     12264     12267     12270
     12267     12270     12273     12274     12267     12270     12273     12275
     12267     12270     12273     12276     12268     12267     12270     12271
     12268     12267     12270     12272     12268     12267     12270     12273
     12269     12267     12270     12271     12269     12267     12270     12272
     12269     12267     12270     12273     12270     12273     12276     12277
     12270     12273     12276     12278     12270     12273     12276     12279
     12271     12270     12273     12274     12271     12270     12273     12275
     12271     12270     12273     12276     12272     12270     12273     12274
     12272     12270     12273     12275     12272     12270     12273     12276
     12274     12273     12276     12277     12274     12273     12276     12278
     12274     12273     12276     12279     12275     12273     12276     12277
     12275     12273     12276     12278     12275     12273     12276     12279
     12280     12283     12286     12287     12280     12283     12286     12288
     12280     12283     12286     12289     12281     12280     12283     12284
     12281     12280     12283     12285     12281     12280     12283     12286
     12282     12280     12283     12284     12282     12280     12283     12285
     12282     12280     12283     12286     12283     12286     12289     12290
     12283     12286     12289     12291     12283     12286     12289     12292
     12284     12283     12286     12287     12284     12283     12286     12288
     12284     12283     12286     12289     12285     12283     12286     12287
     12285     12283     12286     12288     12285     12283     12286     12289
     12286     12289     12292     12293     12286     12289     12292     12294
     12286     12289     12292     12295     12287     12286     12289     12290
     12287     12286     12289     12291     12287     12286     12289     12292
     12288     12286     12289     12290     12288     12286     12289     12291
     12288     12286     12289     12292     12289     12292     12295     12296
     12289     12292     12295     12297     12289     12292     12295     12298
     12290     12289     12292     12293     12290     12289     12292     12294
     12290     12289     12292     12295     12291     12289     12292     12293
     12291     12289     12292     12294     12291     12289     12292     12295
     12292     12295     12298     12299     12292     12295     12298     12300
     12292     12295     12298     12301     12293     12292     12295     12296
     12293     12292     12295     12297     12293     12292     12295     12298
     12294     12292     12295     12296     12294     12292     12295     12297
     12294     12292     12295     12298     12295     12298     12301     12302
     12295     12298     12301     12303     12295     12298     12301     12304
     12296     12295     12298     12299     12296     12295     12298     12300
     12296     12295     12298     12301     12297     12295     12298     12299
     12297     12295     12298     12300     12297     12295     12298     12301
     12298     12301     12304     12305     12298     12301     12304     12306
     12298     12301     12304     12307     12299     12298     12301     12302
     12299     12298     12301     12303     12299     12298     12301     12304
     12300     12298     12301     12302     12300     12298     12301     12303
     12300     12298     12301     12304     12301     12304     12307     12308
     12301     12304     12307     12309     12301     12304     12307     12310
     12302     12301     12304     12305     12302     12301     12304     12306
     12302     12301     12304     12307     12303     12301     12304     12305
     12303     12301     12304     12306     12303     12301     12304     12307
     12304     12307     12310     12311     12304     12307     12310     12312
     12304     12307     12310     12313     12305     12304     12307     12308
     12305     12304     12307     12309     12305     12304     12307     12310
     12306     12304     12307     12308     12306     12304     12307     12309
     12306     12304     12307     12310     12307     12310     12313     12314
     12307     12310     12313     12315     12307     12310     12313     12316
     12308     12307     12310     12311     12308     12307     12310     12312
     12308     12307     12310     12313     12309     12307     12310     12311
     12309     12307     12310     12312     12309     12307     12310     12313
     12310     12313     12316     12317     12310     12313     12316     12318
     12310     12313     12316     12319     12311     12310     12313     12314
     12311     12310     12313     12315     12311     12310     12313     12316
     12312     12310     12313     12314     12312     12310     12313     12315
     12312     12310     12313     12316     12313     12316     12319     12320
     12313     12316     12319     12321     12313     12316     12319     12322
     12314     12313     12316     12317     12314     12313     12316     12318
     12314     12313     12316     12319     12315     12313     12316     12317
     12315     12313     12316     12318     12315     12313     12316     12319
     12317     12316     12319     12320     12317     12316     12319     12321
     12317     12316     12319     12322     12318     12316     12319     12320
     12318     12316     12319     12321     12318     12316     12319     12322
     12323     12324     12339     12340     12323     12324     12339     12341
     12323     12324     12339     12345     12324     12323     12327     12328
     12324     12323     12327     12329     12324     12323     12327     12330
     12324     12323     12331     12332     12324     12323     12331     12333
     12324     12323     12331     12334     12324     12323     12335     12336
     12324     12323     12335     12337     12324     12323     12335     12338
     12324     12339     12345     12342     12325     12324     12323     12327
     12325     12324     12323     12331     12325     12324     12323     12335
     12325     12324     12339     12340     12325     12324     12339     12341
     12325     12324     12339     12345     12326     12324     12323     12327
     12326     12324     12323     12331     12326     12324     12323     12335
     12326     12324     12339     12340     12326     12324     12339     12341
     12326     12324     12339     12345     12327     12323     12324     12339
     12327     12323     12331     12332     12327     12323     12331     12333
     12327     12323     12331     12334     12327     12323     12335     12336
     12327     12323     12335     12337     12327     12323     12335     12338
     12328     12327     12323     12331     12328     12327     12323     12335
     12329     12327     12323     12331     12329     12327     12323     12335
     12330     12327     12323     12331     12330     12327     12323     12335
     12331     12323     12324     12339     12331     12323     12335     12336
     12331     12323     12335     12337     12331     12323     12335     12338
     12332     12331     12323     12335     12333     12331     12323     12335
     12334     12331     12323     12335     12335     12323     12324     12339
     12339     12345     12342     12343     12339     12345     12342     12344
     12339     12345     12342     12346     12340     12339     12345     12342
     12341     12339     12345     12342     12342     12346     12347     12348
     12342     12346     12347     12349     12342     12346     12347     12350
     12343     12342     12346     12347     12344     12342     12346     12347
     12345     12342     12346     12347     12346     12347     12350     12351
     12346     12347     12350     12352     12346     12347     12350     12358
     12347     12350     12352     12353     12347     12350     12358     12359
     12347     12350     12358     12360     12347     12350     12358     12361
     12348     12347     12350     12351     12348     12347     12350     12352
     12348     12347     12350     12358     12349     12347     12350     12351
     12349     12347     12350     12352     12349     12347     12350     12358
     12350     12352     12353     12354     12350     12352     12353     12355
     12350     12358     12361     12362     12351     12350     12352     12353
     12351     12350     12358     12359     12351     12350     12358     12360
     12351     12350     12358     12361     12352     12350     12358     12359
     12352     12350     12358     12360     12352     12350     12358     12361
     12352     12353     12355     12356     12352     12353     12355     12357
     12352     12353     12355     12367     12353     12352     12350     12358
     12353     12355     12367     12368     12353     12355     12367     12369
     12353     12355     12367     12370     12354     12353     12355     12356
     12354     12353     12355     12357     12354     12353     12355     12367
     12355     12367     12370     12371     12355     12367     12370     12372
     12355     12367     12370     12373     12356     12355     12367     12368
     12356     12355     12367     12369     12356     12355     12367     12370
     12357     12355     12367     12368     12357     12355     12367     12369
     12357     12355     12367     12370     12358     12361     12362     12363
     12358     12361     12362     12364     12359     12358     12361     12362
     12360     12358     12361     12362     12361     12362     12364     12365
     12361     12362     12364     12366     12361     12362     12364     12414
     12362     12364     12414     12415     12362     12364     12414     12416
     12362     12364     12414     12417     12363     12362     12364     12365
     12363     12362     12364     12366     12363     12362     12364     12414
     12364     12414     12417     12418     12364     12414     12417     12419
     12364     12414     12417     12420     12365     12364     12414     12415
     12365     12364     12414     12416     12365     12364     12414     12417
     12366     12364     12414     12415     12366     12364     12414     12416
     12366     12364     12414     12417     12367     12370     12373     12374
     12367     12370     12373     12375     12367     12370     12373     12376
     12368     12367     12370     12371     12368     12367     12370     12372
     12368     12367     12370     12373     12369     12367     12370     12371
     12369     12367     12370     12372     12369     12367     12370     12373
     12370     12373     12376     12377     12370     12373     12376     12378
     12370     12373     12376     12379     12371     12370     12373     12374
     12371     12370     12373     12375     12371     12370     12373     12376
     12372     12370     12373     12374     12372     12370     12373     12375
     12372     12370     12373     12376     12373     12376     12379     12380
     12373     12376     12379     12381     12373     12376     12379     12382
     12374     12373     12376     12377     12374     12373     12376     12378
     12374     12373     12376     12379     12375     12373     12376     12377
     12375     12373     12376     12378     12375     12373     12376     12379
     12376     12379     12382     12383     12376     12379     12382     12384
     12376     12379     12382     12385     12377     12376     12379     12380
     12377     12376     12379     12381     12377     12376     12379     12382
     12378     12376     12379     12380     12378     12376     12379     12381
     12378     12376     12379     12382     12379     12382     12385     12386
     12379     12382     12385     12387     12380     12379     12382     12383
     12380     12379     12382     12384     12380     12379     12382     12385
     12381     12379     12382     12383     12381     12379     12382     12384
     12381     12379     12382     12385     12382     12385     12387     12388
     12382     12385     12387     12389     12383     12382     12385     12386
     12383     12382     12385     12387     12384     12382     12385     12386
     12384     12382     12385     12387     12385     12387     12389     12390
     12385     12387     12389     12391     12385     12387     12389     12392
     12386     12385     12387     12388     12386     12385     12387     12389
     12387     12389     12392     12393     12387     12389     12392     12394
     12387     12389     12392     12395     12388     12387     12389     12390
     12388     12387     12389     12391     12388     12387     12389     12392
     12389     12392     12395     12396     12389     12392     12395     12397
     12389     12392     12395     12398     12390     12389     12392     12393
     12390     12389     12392     12394     12390     12389     12392     12395
     12391     12389     12392     12393     12391     12389     12392     12394
     12391     12389     12392     12395     12392     12395     12398     12399
     12392     12395     12398     12400     12392     12395     12398     12401
     12393     12392     12395     12396     12393     12392     12395     12397
     12393     12392     12395     12398     12394     12392     12395     12396
     12394     12392     12395     12397     12394     12392     12395     12398
     12395     12398     12401     12402     12395     12398     12401     12403
     12395     12398     12401     12404     12396     12395     12398     12399
     12396     12395     12398     12400     12396     12395     12398     12401
     12397     12395     12398     12399     12397     12395     12398     12400
     12397     12395     12398     12401     12398     12401     12404     12405
     12398     12401     12404     12406     12398     12401     12404     12407
     12399     12398     12401     12402     12399     12398     12401     12403
     12399     12398     12401     12404     12400     12398     12401     12402
     12400     12398     12401     12403     12400     12398     12401     12404
     12401     12404     12407     12408     12401     12404     12407     12409
     12401     12404     12407     12410     12402     12401     12404     12405
     12402     12401     12404     12406     12402     12401     12404     12407
     12403     12401     12404     12405     12403     12401     12404     12406
     12403     12401     12404     12407     12404     12407     12410     12411
     12404     12407     12410     12412     12404     12407     12410     12413
     12405     12404     12407     12408     12405     12404     12407     12409
     12405     12404     12407     12410     12406     12404     12407     12408
     12406     12404     12407     12409     12406     12404     12407     12410
     12408     12407     12410     12411     12408     12407     12410     12412
     12408     12407     12410     12413     12409     12407     12410     12411
     12409     12407     12410     12412     12409     12407     12410     12413
     12414     12417     12420     12421     12414     12417     12420     12422
     12414     12417     12420     12423     12415     12414     12417     12418
     12415     12414     12417     12419     12415     12414     12417     12420
     12416     12414     12417     12418     12416     12414     12417     12419
     12416     12414     12417     12420     12417     12420     12423     12424
     12417     12420     12423     12425     12417     12420     12423     12426
     12418     12417     12420     12421     12418     12417     12420     12422
     12418     12417     12420     12423     12419     12417     12420     12421
     12419     12417     12420     12422     12419     12417     12420     12423
     12420     12423     12426     12427     12420     12423     12426     12428
     12420     12423     12426     12429     12421     12420     12423     12424
     12421     12420     12423     12425     12421     12420     12423     12426
     12422     12420     12423     12424     12422     12420     12423     12425
     12422     12420     12423     12426     12423     12426     12429     12430
     12423     12426     12429     12431     12423     12426     12429     12432
     12424     12423     12426     12427     12424     12423     12426     12428
     12424     12423     12426     12429     12425     12423     12426     12427
     12425     12423     12426     12428     12425     12423     12426     12429
     12426     12429     12432     12433     12426     12429     12432     12434
     12426     12429     12432     12435     12427     12426     12429     12430
     12427     12426     12429     12431     12427     12426     12429     12432
     12428     12426     12429     12430     12428     12426     12429     12431
     12428     12426     12429     12432     12429     12432     12435     12436
     12429     12432     12435     12437     12429     12432     12435     12438
     12430     12429     12432     12433     12430     12429     12432     12434
     12430     12429     12432     12435     12431     12429     12432     12433
     12431     12429     12432     12434     12431     12429     12432     12435
     12432     12435     12438     12439     12432     12435     12438     12440
     12432     12435     12438     12441     12433     12432     12435     12436
     12433     12432     12435     12437     12433     12432     12435     12438
     12434     12432     12435     12436     12434     12432     12435     12437
     12434     12432     12435     12438     12435     12438     12441     12442
     12435     12438     12441     12443     12435     12438     12441     12444
     12436     12435     12438     12439     12436     12435     12438     12440
     12436     12435     12438     12441     12437     12435     12438     12439
     12437     12435     12438     12440     12437     12435     12438     12441
     12438     12441     12444     12445     12438     12441     12444     12446
     12438     12441     12444     12447     12439     12438     12441     12442
     12439     12438     12441     12443     12439     12438     12441     12444
     12440     12438     12441     12442     12440     12438     12441     12443
     12440     12438     12441     12444     12441     12444     12447     12448
     12441     12444     12447     12449     12441     12444     12447     12450
     12442     12441     12444     12445     12442     12441     12444     12446
     12442     12441     12444     12447     12443     12441     12444     12445
     12443     12441     12444     12446     12443     12441     12444     12447
     12444     12447     12450     12451     12444     12447     12450     12452
     12444     12447     12450     12453     12445     12444     12447     12448
     12445     12444     12447     12449     12445     12444     12447     12450
     12446     12444     12447     12448     12446     12444     12447     12449
     12446     12444     12447     12450     12447     12450     12453     12454
     12447     12450     12453     12455     12447     12450     12453     12456
     12448     12447     12450     12451     12448     12447     12450     12452
     12448     12447     12450     12453     12449     12447     12450     12451
     12449     12447     12450     12452     12449     12447     12450     12453
     12451     12450     12453     12454     12451     12450     12453     12455
     12451     12450     12453     12456     12452     12450     12453     12454
     12452     12450     12453     12455     12452     12450     12453     12456
     12457     12458     12473     12474     12457     12458     12473     12475
     12457     12458     12473     12479     12458     12457     12461     12462
     12458     12457     12461     12463     12458     12457     12461     12464
     12458     12457     12465     12466     12458     12457     12465     12467
     12458     12457     12465     12468     12458     12457     12469     12470
     12458     12457     12469     12471     12458     12457     12469     12472
     12458     12473     12479     12476     12459     12458     12457     12461
     12459     12458     12457     12465     12459     12458     12457     12469
     12459     12458     12473     12474     12459     12458     12473     12475
     12459     12458     12473     12479     12460     12458     12457     12461
     12460     12458     12457     12465     12460     12458     12457     12469
     12460     12458     12473     12474     12460     12458     12473     12475
     12460     12458     12473     12479     12461     12457     12458     12473
     12461     12457     12465     12466     12461     12457     12465     12467
     12461     12457     12465     12468     12461     12457     12469     12470
     12461     12457     12469     12471     12461     12457     12469     12472
     12462     12461     12457     12465     12462     12461     12457     12469
     12463     12461     12457     12465     12463     12461     12457     12469
     12464     12461     12457     12465     12464     12461     12457     12469
     12465     12457     12458     12473     12465     12457     12469     12470
     12465     12457     12469     12471     12465     12457     12469     12472
     12466     12465     12457     12469     12467     12465     12457     12469
     12468     12465     12457     12469     12469     12457     12458     12473
     12473     12479     12476     12477     12473     12479     12476     12478
     12473     12479     12476     12480     12474     12473     12479     12476
     12475     12473     12479     12476     12476     12480     12481     12482
     12476     12480     12481     12483     12476     12480     12481     12484
     12477     12476     12480     12481     12478     12476     12480     12481
     12479     12476     12480     12481     12480     12481     12484     12485
     12480     12481     12484     12486     12480     12481     12484     12492
     12481     12484     12486     12487     12481     12484     12492     12493
     12481     12484     12492     12494     12481     12484     12492     12495
     12482     12481     12484     12485     12482     12481     12484     12486
     12482     12481     12484     12492     12483     12481     12484     12485
     12483     12481     12484     12486     12483     12481     12484     12492
     12484     12486     12487     12488     12484     12486     12487     12489
     12484     12492     12495     12496     12485     12484     12486     12487
     12485     12484     12492     12493     12485     12484     12492     12494
     12485     12484     12492     12495     12486     12484     12492     12493
     12486     12484     12492     12494     12486     12484     12492     12495
     12486     12487     12489     12490     12486     12487     12489     12491
     12486     12487     12489     12501     12487     12486     12484     12492
     12487     12489     12501     12502     12487     12489     12501     12503
     12487     12489     12501     12504     12488     12487     12489     12490
     12488     12487     12489     12491     12488     12487     12489     12501
     12489     12501     12504     12505     12489     12501     12504     12506
     12489     12501     12504     12507     12490     12489     12501     12502
     12490     12489     12501     12503     12490     12489     12501     12504
     12491     12489     12501     12502     12491     12489     12501     12503
     12491     12489     12501     12504     12492     12495     12496     12497
     12492     12495     12496     12498     12493     12492     12495     12496
     12494     12492     12495     12496     12495     12496     12498     12499
     12495     12496     12498     12500     12495     12496     12498     12548
     12496     12498     12548     12549     12496     12498     12548     12550
     12496     12498     12548     12551     12497     12496     12498     12499
     12497     12496     12498     12500     12497     12496     12498     12548
     12498     12548     12551     12552     12498     12548     12551     12553
     12498     12548     12551     12554     12499     12498     12548     12549
     12499     12498     12548     12550     12499     12498     12548     12551
     12500     12498     12548     12549     12500     12498     12548     12550
     12500     12498     12548     12551     12501     12504     12507     12508
     12501     12504     12507     12509     12501     12504     12507     12510
     12502     12501     12504     12505     12502     12501     12504     12506
     12502     12501     12504     12507     12503     12501     12504     12505
     12503     12501     12504     12506     12503     12501     12504     12507
     12504     12507     12510     12511     12504     12507     12510     12512
     12504     12507     12510     12513     12505     12504     12507     12508
     12505     12504     12507     12509     12505     12504     12507     12510
     12506     12504     12507     12508     12506     12504     12507     12509
     12506     12504     12507     12510     12507     12510     12513     12514
     12507     12510     12513     12515     12507     12510     12513     12516
     12508     12507     12510     12511     12508     12507     12510     12512
     12508     12507     12510     12513     12509     12507     12510     12511
     12509     12507     12510     12512     12509     12507     12510     12513
     12510     12513     12516     12517     12510     12513     12516     12518
     12510     12513     12516     12519     12511     12510     12513     12514
     12511     12510     12513     12515     12511     12510     12513     12516
     12512     12510     12513     12514     12512     12510     12513     12515
     12512     12510     12513     12516     12513     12516     12519     12520
     12513     12516     12519     12521     12514     12513     12516     12517
     12514     12513     12516     12518     12514     12513     12516     12519
     12515     12513     12516     12517     12515     12513     12516     12518
     12515     12513     12516     12519     12516     12519     12521     12522
     12516     12519     12521     12523     12517     12516     12519     12520
     12517     12516     12519     12521     12518     12516     12519     12520
     12518     12516     12519     12521     12519     12521     12523     12524
     12519     12521     12523     12525     12519     12521     12523     12526
     12520     12519     12521     12522     12520     12519     12521     12523
     12521     12523     12526     12527     12521     12523     12526     12528
     12521     12523     12526     12529     12522     12521     12523     12524
     12522     12521     12523     12525     12522     12521     12523     12526
     12523     12526     12529     12530     12523     12526     12529     12531
     12523     12526     12529     12532     12524     12523     12526     12527
     12524     12523     12526     12528     12524     12523     12526     12529
     12525     12523     12526     12527     12525     12523     12526     12528
     12525     12523     12526     12529     12526     12529     12532     12533
     12526     12529     12532     12534     12526     12529     12532     12535
     12527     12526     12529     12530     12527     12526     12529     12531
     12527     12526     12529     12532     12528     12526     12529     12530
     12528     12526     12529     12531     12528     12526     12529     12532
     12529     12532     12535     12536     12529     12532     12535     12537
     12529     12532     12535     12538     12530     12529     12532     12533
     12530     12529     12532     12534     12530     12529     12532     12535
     12531     12529     12532     12533     12531     12529     12532     12534
     12531     12529     12532     12535     12532     12535     12538     12539
     12532     12535     12538     12540     12532     12535     12538     12541
     12533     12532     12535     12536     12533     12532     12535     12537
     12533     12532     12535     12538     12534     12532     12535     12536
     12534     12532     12535     12537     12534     12532     12535     12538
     12535     12538     12541     12542     12535     12538     12541     12543
     12535     12538     12541     12544     12536     12535     12538     12539
     12536     12535     12538     12540     12536     12535     12538     12541
     12537     12535     12538     12539     12537     12535     12538     12540
     12537     12535     12538     12541     12538     12541     12544     12545
     12538     12541     12544     12546     12538     12541     12544     12547
     12539     12538     12541     12542     12539     12538     12541     12543
     12539     12538     12541     12544     12540     12538     12541     12542
     12540     12538     12541     12543     12540     12538     12541     12544
     12542     12541     12544     12545     12542     12541     12544     12546
     12542     12541     12544     12547     12543     12541     12544     12545
     12543     12541     12544     12546     12543     12541     12544     12547
     12548     12551     12554     12555     12548     12551     12554     12556
     12548     12551     12554     12557     12549     12548     12551     12552
     12549     12548     12551     12553     12549     12548     12551     12554
     12550     12548     12551     12552     12550     12548     12551     12553
     12550     12548     12551     12554     12551     12554     12557     12558
     12551     12554     12557     12559     12551     12554     12557     12560
     12552     12551     12554     12555     12552     12551     12554     12556
     12552     12551     12554     12557     12553     12551     12554     12555
     12553     12551     12554     12556     12553     12551     12554     12557
     12554     12557     12560     12561     12554     12557     12560     12562
     12554     12557     12560     12563     12555     12554     12557     12558
     12555     12554     12557     12559     12555     12554     12557     12560
     12556     12554     12557     12558     12556     12554     12557     12559
     12556     12554     12557     12560     12557     12560     12563     12564
     12557     12560     12563     12565     12557     12560     12563     12566
     12558     12557     12560     12561     12558     12557     12560     12562
     12558     12557     12560     12563     12559     12557     12560     12561
     12559     12557     12560     12562     12559     12557     12560     12563
     12560     12563     12566     12567     12560     12563     12566     12568
     12560     12563     12566     12569     12561     12560     12563     12564
     12561     12560     12563     12565     12561     12560     12563     12566
     12562     12560     12563     12564     12562     12560     12563     12565
     12562     12560     12563     12566     12563     12566     12569     12570
     12563     12566     12569     12571     12563     12566     12569     12572
     12564     12563     12566     12567     12564     12563     12566     12568
     12564     12563     12566     12569     12565     12563     12566     12567
     12565     12563     12566     12568     12565     12563     12566     12569
     12566     12569     12572     12573     12566     12569     12572     12574
     12566     12569     12572     12575     12567     12566     12569     12570
     12567     12566     12569     12571     12567     12566     12569     12572
     12568     12566     12569     12570     12568     12566     12569     12571
     12568     12566     12569     12572     12569     12572     12575     12576
     12569     12572     12575     12577     12569     12572     12575     12578
     12570     12569     12572     12573     12570     12569     12572     12574
     12570     12569     12572     12575     12571     12569     12572     12573
     12571     12569     12572     12574     12571     12569     12572     12575
     12572     12575     12578     12579     12572     12575     12578     12580
     12572     12575     12578     12581     12573     12572     12575     12576
     12573     12572     12575     12577     12573     12572     12575     12578
     12574     12572     12575     12576     12574     12572     12575     12577
     12574     12572     12575     12578     12575     12578     12581     12582
     12575     12578     12581     12583     12575     12578     12581     12584
     12576     12575     12578     12579     12576     12575     12578     12580
     12576     12575     12578     12581     12577     12575     12578     12579
     12577     12575     12578     12580     12577     12575     12578     12581
     12578     12581     12584     12585     12578     12581     12584     12586
     12578     12581     12584     12587     12579     12578     12581     12582
     12579     12578     12581     12583     12579     12578     12581     12584
     12580     12578     12581     12582     12580     12578     12581     12583
     12580     12578     12581     12584     12581     12584     12587     12588
     12581     12584     12587     12589     12581     12584     12587     12590
     12582     12581     12584     12585     12582     12581     12584     12586
     12582     12581     12584     12587     12583     12581     12584     12585
     12583     12581     12584     12586     12583     12581     12584     12587
     12585     12584     12587     12588     12585     12584     12587     12589
     12585     12584     12587     12590     12586     12584     12587     12588
     12586     12584     12587     12589     12586     12584     12587     12590
     12591     12592     12607     12608     12591     12592     12607     12609
     12591     12592     12607     12613     12592     12591     12595     12596
     12592     12591     12595     12597     12592     12591     12595     12598
     12592     12591     12599     12600     12592     12591     12599     12601
     12592     12591     12599     12602     12592     12591     12603     12604
     12592     12591     12603     12605     12592     12591     12603     12606
     12592     12607     12613     12610     12593     12592     12591     12595
     12593     12592     12591     12599     12593     12592     12591     12603
     12593     12592     12607     12608     12593     12592     12607     12609
     12593     12592     12607     12613     12594     12592     12591     12595
     12594     12592     12591     12599     12594     12592     12591     12603
     12594     12592     12607     12608     12594     12592     12607     12609
     12594     12592     12607     12613     12595     12591     12592     12607
     12595     12591     12599     12600     12595     12591     12599     12601
     12595     12591     12599     12602     12595     12591     12603     12604
     12595     12591     12603     12605     12595     12591     12603     12606
     12596     12595     12591     12599     12596     12595     12591     12603
     12597     12595     12591     12599     12597     12595     12591     12603
     12598     12595     12591     12599     12598     12595     12591     12603
     12599     12591     12592     12607     12599     12591     12603     12604
     12599     12591     12603     12605     12599     12591     12603     12606
     12600     12599     12591     12603     12601     12599     12591     12603
     12602     12599     12591     12603     12603     12591     12592     12607
     12607     12613     12610     12611     12607     12613     12610     12612
     12607     12613     12610     12614     12608     12607     12613     12610
     12609     12607     12613     12610     12610     12614     12615     12616
     12610     12614     12615     12617     12610     12614     12615     12618
     12611     12610     12614     12615     12612     12610     12614     12615
     12613     12610     12614     12615     12614     12615     12618     12619
     12614     12615     12618     12620     12614     12615     12618     12626
     12615     12618     12620     12621     12615     12618     12626     12627
     12615     12618     12626     12628     12615     12618     12626     12629
     12616     12615     12618     12619     12616     12615     12618     12620
     12616     12615     12618     12626     12617     12615     12618     12619
     12617     12615     12618     12620     12617     12615     12618     12626
     12618     12620     12621     12622     12618     12620     12621     12623
     12618     12626     12629     12630     12619     12618     12620     12621
     12619     12618     12626     12627     12619     12618     12626     12628
     12619     12618     12626     12629     12620     12618     12626     12627
     12620     12618     12626     12628     12620     12618     12626     12629
     12620     12621     12623     12624     12620     12621     12623     12625
     12620     12621     12623     12635     12621     12620     12618     12626
     12621     12623     12635     12636     12621     12623     12635     12637
     12621     12623     12635     12638     12622     12621     12623     12624
     12622     12621     12623     12625     12622     12621     12623     12635
     12623     12635     12638     12639     12623     12635     12638     12640
     12623     12635     12638     12641     12624     12623     12635     12636
     12624     12623     12635     12637     12624     12623     12635     12638
     12625     12623     12635     12636     12625     12623     12635     12637
     12625     12623     12635     12638     12626     12629     12630     12631
     12626     12629     12630     12632     12627     12626     12629     12630
     12628     12626     12629     12630     12629     12630     12632     12633
     12629     12630     12632     12634     12629     12630     12632     12682
     12630     12632     12682     12683     12630     12632     12682     12684
     12630     12632     12682     12685     12631     12630     12632     12633
     12631     12630     12632     12634     12631     12630     12632     12682
     12632     12682     12685     12686     12632     12682     12685     12687
     12632     12682     12685     12688     12633     12632     12682     12683
     12633     12632     12682     12684     12633     12632     12682     12685
     12634     12632     12682     12683     12634     12632     12682     12684
     12634     12632     12682     12685     12635     12638     12641     12642
     12635     12638     12641     12643     12635     12638     12641     12644
     12636     12635     12638     12639     12636     12635     12638     12640
     12636     12635     12638     12641     12637     12635     12638     12639
     12637     12635     12638     12640     12637     12635     12638     12641
     12638     12641     12644     12645     12638     12641     12644     12646
     12638     12641     12644     12647     12639     12638     12641     12642
     12639     12638     12641     12643     12639     12638     12641     12644
     12640     12638     12641     12642     12640     12638     12641     12643
     12640     12638     12641     12644     12641     12644     12647     12648
     12641     12644     12647     12649     12641     12644     12647     12650
     12642     12641     12644     12645     12642     12641     12644     12646
     12642     12641     12644     12647     12643     12641     12644     12645
     12643     12641     12644     12646     12643     12641     12644     12647
     12644     12647     12650     12651     12644     12647     12650     12652
     12644     12647     12650     12653     12645     12644     12647     12648
     12645     12644     12647     12649     12645     12644     12647     12650
     12646     12644     12647     12648     12646     12644     12647     12649
     12646     12644     12647     12650     12647     12650     12653     12654
     12647     12650     12653     12655     12648     12647     12650     12651
     12648     12647     12650     12652     12648     12647     12650     12653
     12649     12647     12650     12651     12649     12647     12650     12652
     12649     12647     12650     12653     12650     12653     12655     12656
     12650     12653     12655     12657     12651     12650     12653     12654
     12651     12650     12653     12655     12652     12650     12653     12654
     12652     12650     12653     12655     12653     12655     12657     12658
     12653     12655     12657     12659     12653     12655     12657     12660
     12654     12653     12655     12656     12654     12653     12655     12657
     12655     12657     12660     12661     12655     12657     12660     12662
     12655     12657     12660     12663     12656     12655     12657     12658
     12656     12655     12657     12659     12656     12655     12657     12660
     12657     12660     12663     12664     12657     12660     12663     12665
     12657     12660     12663     12666     12658     12657     12660     12661
     12658     12657     12660     12662     12658     12657     12660     12663
     12659     12657     12660     12661     12659     12657     12660     12662
     12659     12657     12660     12663     12660     12663     12666     12667
     12660     12663     12666     12668     12660     12663     12666     12669
     12661     12660     12663     12664     12661     12660     12663     12665
     12661     12660     12663     12666     12662     12660     12663     12664
     12662     12660     12663     12665     12662     12660     12663     12666
     12663     12666     12669     12670     12663     12666     12669     12671
     12663     12666     12669     12672     12664     12663     12666     12667
     12664     12663     12666     12668     12664     12663     12666     12669
     12665     12663     12666     12667     12665     12663     12666     12668
     12665     12663     12666     12669     12666     12669     12672     12673
     12666     12669     12672     12674     12666     12669     12672     12675
     12667     12666     12669     12670     12667     12666     12669     12671
     12667     12666     12669     12672     12668     12666     12669     12670
     12668     12666     12669     12671     12668     12666     12669     12672
     12669     12672     12675     12676     12669     12672     12675     12677
     12669     12672     12675     12678     12670     12669     12672     12673
     12670     12669     12672     12674     12670     12669     12672     12675
     12671     12669     12672     12673     12671     12669     12672     12674
     12671     12669     12672     12675     12672     12675     12678     12679
     12672     12675     12678     12680     12672     12675     12678     12681
     12673     12672     12675     12676     12673     12672     12675     12677
     12673     12672     12675     12678     12674     12672     12675     12676
     12674     12672     12675     12677     12674     12672     12675     12678
     12676     12675     12678     12679     12676     12675     12678     12680
     12676     12675     12678     12681     12677     12675     12678     12679
     12677     12675     12678     12680     12677     12675     12678     12681
     12682     12685     12688     12689     12682     12685     12688     12690
     12682     12685     12688     12691     12683     12682     12685     12686
     12683     12682     12685     12687     12683     12682     12685     12688
     12684     12682     12685     12686     12684     12682     12685     12687
     12684     12682     12685     12688     12685     12688     12691     12692
     12685     12688     12691     12693     12685     12688     12691     12694
     12686     12685     12688     12689     12686     12685     12688     12690
     12686     12685     12688     12691     12687     12685     12688     12689
     12687     12685     12688     12690     12687     12685     12688     12691
     12688     12691     12694     12695     12688     12691     12694     12696
     12688     12691     12694     12697     12689     12688     12691     12692
     12689     12688     12691     12693     12689     12688     12691     12694
     12690     12688     12691     12692     12690     12688     12691     12693
     12690     12688     12691     12694     12691     12694     12697     12698
     12691     12694     12697     12699     12691     12694     12697     12700
     12692     12691     12694     12695     12692     12691     12694     12696
     12692     12691     12694     12697     12693     12691     12694     12695
     12693     12691     12694     12696     12693     12691     12694     12697
     12694     12697     12700     12701     12694     12697     12700     12702
     12694     12697     12700     12703     12695     12694     12697     12698
     12695     12694     12697     12699     12695     12694     12697     12700
     12696     12694     12697     12698     12696     12694     12697     12699
     12696     12694     12697     12700     12697     12700     12703     12704
     12697     12700     12703     12705     12697     12700     12703     12706
     12698     12697     12700     12701     12698     12697     12700     12702
     12698     12697     12700     12703     12699     12697     12700     12701
     12699     12697     12700     12702     12699     12697     12700     12703
     12700     12703     12706     12707     12700     12703     12706     12708
     12700     12703     12706     12709     12701     12700     12703     12704
     12701     12700     12703     12705     12701     12700     12703     12706
     12702     12700     12703     12704     12702     12700     12703     12705
     12702     12700     12703     12706     12703     12706     12709     12710
     12703     12706     12709     12711     12703     12706     12709     12712
     12704     12703     12706     12707     12704     12703     12706     12708
     12704     12703     12706     12709     12705     12703     12706     12707
     12705     12703     12706     12708     12705     12703     12706     12709
     12706     12709     12712     12713     12706     12709     12712     12714
     12706     12709     12712     12715     12707     12706     12709     12710
     12707     12706     12709     12711     12707     12706     12709     12712
     12708     12706     12709     12710     12708     12706     12709     12711
     12708     12706     12709     12712     12709     12712     12715     12716
     12709     12712     12715     12717     12709     12712     12715     12718
     12710     12709     12712     12713     12710     12709     12712     12714
     12710     12709     12712     12715     12711     12709     12712     12713
     12711     12709     12712     12714     12711     12709     12712     12715
     12712     12715     12718     12719     12712     12715     12718     12720
     12712     12715     12718     12721     12713     12712     12715     12716
     12713     12712     12715     12717     12713     12712     12715     12718
     12714     12712     12715     12716     12714     12712     12715     12717
     12714     12712     12715     12718     12715     12718     12721     12722
     12715     12718     12721     12723     12715     12718     12721     12724
     12716     12715     12718     12719     12716     12715     12718     12720
     12716     12715     12718     12721     12717     12715     12718     12719
     12717     12715     12718     12720     12717     12715     12718     12721
     12719     12718     12721     12722     12719     12718     12721     12723
     12719     12718     12721     12724     12720     12718     12721     12722
     12720     12718     12721     12723     12720     12718     12721     12724
     12725     12726     12741     12742     12725     12726     12741     12743
     12725     12726     12741     12747     12726     12725     12729     12730
     12726     12725     12729     12731     12726     12725     12729     12732
     12726     12725     12733     12734     12726     12725     12733     12735
     12726     12725     12733     12736     12726     12725     12737     12738
     12726     12725     12737     12739     12726     12725     12737     12740
     12726     12741     12747     12744     12727     12726     12725     12729
     12727     12726     12725     12733     12727     12726     12725     12737
     12727     12726     12741     12742     12727     12726     12741     12743
     12727     12726     12741     12747     12728     12726     12725     12729
     12728     12726     12725     12733     12728     12726     12725     12737
     12728     12726     12741     12742     12728     12726     12741     12743
     12728     12726     12741     12747     12729     12725     12726     12741
     12729     12725     12733     12734     12729     12725     12733     12735
     12729     12725     12733     12736     12729     12725     12737     12738
     12729     12725     12737     12739     12729     12725     12737     12740
     12730     12729     12725     12733     12730     12729     12725     12737
     12731     12729     12725     12733     12731     12729     12725     12737
     12732     12729     12725     12733     12732     12729     12725     12737
     12733     12725     12726     12741     12733     12725     12737     12738
     12733     12725     12737     12739     12733     12725     12737     12740
     12734     12733     12725     12737     12735     12733     12725     12737
     12736     12733     12725     12737     12737     12725     12726     12741
     12741     12747     12744     12745     12741     12747     12744     12746
     12741     12747     12744     12748     12742     12741     12747     12744
     12743     12741     12747     12744     12744     12748     12749     12750
     12744     12748     12749     12751     12744     12748     12749     12752
     12745     12744     12748     12749     12746     12744     12748     12749
     12747     12744     12748     12749     12748     12749     12752     12753
     12748     12749     12752     12754     12748     12749     12752     12760
     12749     12752     12754     12755     12749     12752     12760     12761
     12749     12752     12760     12762     12749     12752     12760     12763
     12750     12749     12752     12753     12750     12749     12752     12754
     12750     12749     12752     12760     12751     12749     12752     12753
     12751     12749     12752     12754     12751     12749     12752     12760
     12752     12754     12755     12756     12752     12754     12755     12757
     12752     12760     12763     12764     12753     12752     12754     12755
     12753     12752     12760     12761     12753     12752     12760     12762
     12753     12752     12760     12763     12754     12752     12760     12761
     12754     12752     12760     12762     12754     12752     12760     12763
     12754     12755     12757     12758     12754     12755     12757     12759
     12754     12755     12757     12769     12755     12754     12752     12760
     12755     12757     12769     12770     12755     12757     12769     12771
     12755     12757     12769     12772     12756     12755     12757     12758
     12756     12755     12757     12759     12756     12755     12757     12769
     12757     12769     12772     12773     12757     12769     12772     12774
     12757     12769     12772     12775     12758     12757     12769     12770
     12758     12757     12769     12771     12758     12757     12769     12772
     12759     12757     12769     12770     12759     12757     12769     12771
     12759     12757     12769     12772     12760     12763     12764     12765
     12760     12763     12764     12766     12761     12760     12763     12764
     12762     12760     12763     12764     12763     12764     12766     12767
     12763     12764     12766     12768     12763     12764     12766     12816
     12764     12766     12816     12817     12764     12766     12816     12818
     12764     12766     12816     12819     12765     12764     12766     12767
     12765     12764     12766     12768     12765     12764     12766     12816
     12766     12816     12819     12820     12766     12816     12819     12821
     12766     12816     12819     12822     12767     12766     12816     12817
     12767     12766     12816     12818     12767     12766     12816     12819
     12768     12766     12816     12817     12768     12766     12816     12818
     12768     12766     12816     12819     12769     12772     12775     12776
     12769     12772     12775     12777     12769     12772     12775     12778
     12770     12769     12772     12773     12770     12769     12772     12774
     12770     12769     12772     12775     12771     12769     12772     12773
     12771     12769     12772     12774     12771     12769     12772     12775
     12772     12775     12778     12779     12772     12775     12778     12780
     12772     12775     12778     12781     12773     12772     12775     12776
     12773     12772     12775     12777     12773     12772     12775     12778
     12774     12772     12775     12776     12774     12772     12775     12777
     12774     12772     12775     12778     12775     12778     12781     12782
     12775     12778     12781     12783     12775     12778     12781     12784
     12776     12775     12778     12779     12776     12775     12778     12780
     12776     12775     12778     12781     12777     12775     12778     12779
     12777     12775     12778     12780     12777     12775     12778     12781
     12778     12781     12784     12785     12778     12781     12784     12786
     12778     12781     12784     12787     12779     12778     12781     12782
     12779     12778     12781     12783     12779     12778     12781     12784
     12780     12778     12781     12782     12780     12778     12781     12783
     12780     12778     12781     12784     12781     12784     12787     12788
     12781     12784     12787     12789     12782     12781     12784     12785
     12782     12781     12784     12786     12782     12781     12784     12787
     12783     12781     12784     12785     12783     12781     12784     12786
     12783     12781     12784     12787     12784     12787     12789     12790
     12784     12787     12789     12791     12785     12784     12787     12788
     12785     12784     12787     12789     12786     12784     12787     12788
     12786     12784     12787     12789     12787     12789     12791     12792
     12787     12789     12791     12793     12787     12789     12791     12794
     12788     12787     12789     12790     12788     12787     12789     12791
     12789     12791     12794     12795     12789     12791     12794     12796
     12789     12791     12794     12797     12790     12789     12791     12792
     12790     12789     12791     12793     12790     12789     12791     12794
     12791     12794     12797     12798     12791     12794     12797     12799
     12791     12794     12797     12800     12792     12791     12794     12795
     12792     12791     12794     12796     12792     12791     12794     12797
     12793     12791     12794     12795     12793     12791     12794     12796
     12793     12791     12794     12797     12794     12797     12800     12801
     12794     12797     12800     12802     12794     12797     12800     12803
     12795     12794     12797     12798     12795     12794     12797     12799
     12795     12794     12797     12800     12796     12794     12797     12798
     12796     12794     12797     12799     12796     12794     12797     12800
     12797     12800     12803     12804     12797     12800     12803     12805
     12797     12800     12803     12806     12798     12797     12800     12801
     12798     12797     12800     12802     12798     12797     12800     12803
     12799     12797     12800     12801     12799     12797     12800     12802
     12799     12797     12800     12803     12800     12803     12806     12807
     12800     12803     12806     12808     12800     12803     12806     12809
     12801     12800     12803     12804     12801     12800     12803     12805
     12801     12800     12803     12806     12802     12800     12803     12804
     12802     12800     12803     12805     12802     12800     12803     12806
     12803     12806     12809     12810     12803     12806     12809     12811
     12803     12806     12809     12812     12804     12803     12806     12807
     12804     12803     12806     12808     12804     12803     12806     12809
     12805     12803     12806     12807     12805     12803     12806     12808
     12805     12803     12806     12809     12806     12809     12812     12813
     12806     12809     12812     12814     12806     12809     12812     12815
     12807     12806     12809     12810     12807     12806     12809     12811
     12807     12806     12809     12812     12808     12806     12809     12810
     12808     12806     12809     12811     12808     12806     12809     12812
     12810     12809     12812     12813     12810     12809     12812     12814
     12810     12809     12812     12815     12811     12809     12812     12813
     12811     12809     12812     12814     12811     12809     12812     12815
     12816     12819     12822     12823     12816     12819     12822     12824
     12816     12819     12822     12825     12817     12816     12819     12820
     12817     12816     12819     12821     12817     12816     12819     12822
     12818     12816     12819     12820     12818     12816     12819     12821
     12818     12816     12819     12822     12819     12822     12825     12826
     12819     12822     12825     12827     12819     12822     12825     12828
     12820     12819     12822     12823     12820     12819     12822     12824
     12820     12819     12822     12825     12821     12819     12822     12823
     12821     12819     12822     12824     12821     12819     12822     12825
     12822     12825     12828     12829     12822     12825     12828     12830
     12822     12825     12828     12831     12823     12822     12825     12826
     12823     12822     12825     12827     12823     12822     12825     12828
     12824     12822     12825     12826     12824     12822     12825     12827
     12824     12822     12825     12828     12825     12828     12831     12832
     12825     12828     12831     12833     12825     12828     12831     12834
     12826     12825     12828     12829     12826     12825     12828     12830
     12826     12825     12828     12831     12827     12825     12828     12829
     12827     12825     12828     12830     12827     12825     12828     12831
     12828     12831     12834     12835     12828     12831     12834     12836
     12828     12831     12834     12837     12829     12828     12831     12832
     12829     12828     12831     12833     12829     12828     12831     12834
     12830     12828     12831     12832     12830     12828     12831     12833
     12830     12828     12831     12834     12831     12834     12837     12838
     12831     12834     12837     12839     12831     12834     12837     12840
     12832     12831     12834     12835     12832     12831     12834     12836
     12832     12831     12834     12837     12833     12831     12834     12835
     12833     12831     12834     12836     12833     12831     12834     12837
     12834     12837     12840     12841     12834     12837     12840     12842
     12834     12837     12840     12843     12835     12834     12837     12838
     12835     12834     12837     12839     12835     12834     12837     12840
     12836     12834     12837     12838     12836     12834     12837     12839
     12836     12834     12837     12840     12837     12840     12843     12844
     12837     12840     12843     12845     12837     12840     12843     12846
     12838     12837     12840     12841     12838     12837     12840     12842
     12838     12837     12840     12843     12839     12837     12840     12841
     12839     12837     12840     12842     12839     12837     12840     12843
     12840     12843     12846     12847     12840     12843     12846     12848
     12840     12843     12846     12849     12841     12840     12843     12844
     12841     12840     12843     12845     12841     12840     12843     12846
     12842     12840     12843     12844     12842     12840     12843     12845
     12842     12840     12843     12846     12843     12846     12849     12850
     12843     12846     12849     12851     12843     12846     12849     12852
     12844     12843     12846     12847     12844     12843     12846     12848
     12844     12843     12846     12849     12845     12843     12846     12847
     12845     12843     12846     12848     12845     12843     12846     12849
     12846     12849     12852     12853     12846     12849     12852     12854
     12846     12849     12852     12855     12847     12846     12849     12850
     12847     12846     12849     12851     12847     12846     12849     12852
     12848     12846     12849     12850     12848     12846     12849     12851
     12848     12846     12849     12852     12849     12852     12855     12856
     12849     12852     12855     12857     12849     12852     12855     12858
     12850     12849     12852     12853     12850     12849     12852     12854
     12850     12849     12852     12855     12851     12849     12852     12853
     12851     12849     12852     12854     12851     12849     12852     12855
     12853     12852     12855     12856     12853     12852     12855     12857
     12853     12852     12855     12858     12854     12852     12855     12856
     12854     12852     12855     12857     12854     12852     12855     12858
     12859     12860     12875     12876     12859     12860     12875     12877
     12859     12860     12875     12881     12860     12859     12863     12864
     12860     12859     12863     12865     12860     12859     12863     12866
     12860     12859     12867     12868     12860     12859     12867     12869
     12860     12859     12867     12870     12860     12859     12871     12872
     12860     12859     12871     12873     12860     12859     12871     12874
     12860     12875     12881     12878     12861     12860     12859     12863
     12861     12860     12859     12867     12861     12860     12859     12871
     12861     12860     12875     12876     12861     12860     12875     12877
     12861     12860     12875     12881     12862     12860     12859     12863
     12862     12860     12859     12867     12862     12860     12859     12871
     12862     12860     12875     12876     12862     12860     12875     12877
     12862     12860     12875     12881     12863     12859     12860     12875
     12863     12859     12867     12868     12863     12859     12867     12869
     12863     12859     12867     12870     12863     12859     12871     12872
     12863     12859     12871     12873     12863     12859     12871     12874
     12864     12863     12859     12867     12864     12863     12859     12871
     12865     12863     12859     12867     12865     12863     12859     12871
     12866     12863     12859     12867     12866     12863     12859     12871
     12867     12859     12860     12875     12867     12859     12871     12872
     12867     12859     12871     12873     12867     12859     12871     12874
     12868     12867     12859     12871     12869     12867     12859     12871
     12870     12867     12859     12871     12871     12859     12860     12875
     12875     12881     12878     12879     12875     12881     12878     12880
     12875     12881     12878     12882     12876     12875     12881     12878
     12877     12875     12881     12878     12878     12882     12883     12884
     12878     12882     12883     12885     12878     12882     12883     12886
     12879     12878     12882     12883     12880     12878     12882     12883
     12881     12878     12882     12883     12882     12883     12886     12887
     12882     12883     12886     12888     12882     12883     12886     12894
     12883     12886     12888     12889     12883     12886     12894     12895
     12883     12886     12894     12896     12883     12886     12894     12897
     12884     12883     12886     12887     12884     12883     12886     12888
     12884     12883     12886     12894     12885     12883     12886     12887
     12885     12883     12886     12888     12885     12883     12886     12894
     12886     12888     12889     12890     12886     12888     12889     12891
     12886     12894     12897     12898     12887     12886     12888     12889
     12887     12886     12894     12895     12887     12886     12894     12896
     12887     12886     12894     12897     12888     12886     12894     12895
     12888     12886     12894     12896     12888     12886     12894     12897
     12888     12889     12891     12892     12888     12889     12891     12893
     12888     12889     12891     12903     12889     12888     12886     12894
     12889     12891     12903     12904     12889     12891     12903     12905
     12889     12891     12903     12906     12890     12889     12891     12892
     12890     12889     12891     12893     12890     12889     12891     12903
     12891     12903     12906     12907     12891     12903     12906     12908
     12891     12903     12906     12909     12892     12891     12903     12904
     12892     12891     12903     12905     12892     12891     12903     12906
     12893     12891     12903     12904     12893     12891     12903     12905
     12893     12891     12903     12906     12894     12897     12898     12899
     12894     12897     12898     12900     12895     12894     12897     12898
     12896     12894     12897     12898     12897     12898     12900     12901
     12897     12898     12900     12902     12897     12898     12900     12950
     12898     12900     12950     12951     12898     12900     12950     12952
     12898     12900     12950     12953     12899     12898     12900     12901
     12899     12898     12900     12902     12899     12898     12900     12950
     12900     12950     12953     12954     12900     12950     12953     12955
     12900     12950     12953     12956     12901     12900     12950     12951
     12901     12900     12950     12952     12901     12900     12950     12953
     12902     12900     12950     12951     12902     12900     12950     12952
     12902     12900     12950     12953     12903     12906     12909     12910
     12903     12906     12909     12911     12903     12906     12909     12912
     12904     12903     12906     12907     12904     12903     12906     12908
     12904     12903     12906     12909     12905     12903     12906     12907
     12905     12903     12906     12908     12905     12903     12906     12909
     12906     12909     12912     12913     12906     12909     12912     12914
     12906     12909     12912     12915     12907     12906     12909     12910
     12907     12906     12909     12911     12907     12906     12909     12912
     12908     12906     12909     12910     12908     12906     12909     12911
     12908     12906     12909     12912     12909     12912     12915     12916
     12909     12912     12915     12917     12909     12912     12915     12918
     12910     12909     12912     12913     12910     12909     12912     12914
     12910     12909     12912     12915     12911     12909     12912     12913
     12911     12909     12912     12914     12911     12909     12912     12915
     12912     12915     12918     12919     12912     12915     12918     12920
     12912     12915     12918     12921     12913     12912     12915     12916
     12913     12912     12915     12917     12913     12912     12915     12918
     12914     12912     12915     12916     12914     12912     12915     12917
     12914     12912     12915     12918     12915     12918     12921     12922
     12915     12918     12921     12923     12916     12915     12918     12919
     12916     12915     12918     12920     12916     12915     12918     12921
     12917     12915     12918     12919     12917     12915     12918     12920
     12917     12915     12918     12921     12918     12921     12923     12924
     12918     12921     12923     12925     12919     12918     12921     12922
     12919     12918     12921     12923     12920     12918     12921     12922
     12920     12918     12921     12923     12921     12923     12925     12926
     12921     12923     12925     12927     12921     12923     12925     12928
     12922     12921     12923     12924     12922     12921     12923     12925
     12923     12925     12928     12929     12923     12925     12928     12930
     12923     12925     12928     12931     12924     12923     12925     12926
     12924     12923     12925     12927     12924     12923     12925     12928
     12925     12928     12931     12932     12925     12928     12931     12933
     12925     12928     12931     12934     12926     12925     12928     12929
     12926     12925     12928     12930     12926     12925     12928     12931
     12927     12925     12928     12929     12927     12925     12928     12930
     12927     12925     12928     12931     12928     12931     12934     12935
     12928     12931     12934     12936     12928     12931     12934     12937
     12929     12928     12931     12932     12929     12928     12931     12933
     12929     12928     12931     12934     12930     12928     12931     12932
     12930     12928     12931     12933     12930     12928     12931     12934
     12931     12934     12937     12938     12931     12934     12937     12939
     12931     12934     12937     12940     12932     12931     12934     12935
     12932     12931     12934     12936     12932     12931     12934     12937
     12933     12931     12934     12935     12933     12931     12934     12936
     12933     12931     12934     12937     12934     12937     12940     12941
     12934     12937     12940     12942     12934     12937     12940     12943
     12935     12934     12937     12938     12935     12934     12937     12939
     12935     12934     12937     12940     12936     12934     12937     12938
     12936     12934     12937     12939     12936     12934     12937     12940
     12937     12940     12943     12944     12937     12940     12943     12945
     12937     12940     12943     12946     12938     12937     12940     12941
     12938     12937     12940     12942     12938     12937     12940     12943
     12939     12937     12940     12941     12939     12937     12940     12942
     12939     12937     12940     12943     12940     12943     12946     12947
     12940     12943     12946     12948     12940     12943     12946     12949
     12941     12940     12943     12944     12941     12940     12943     12945
     12941     12940     12943     12946     12942     12940     12943     12944
     12942     12940     12943     12945     12942     12940     12943     12946
     12944     12943     12946     12947     12944     12943     12946     12948
     12944     12943     12946     12949     12945     12943     12946     12947
     12945     12943     12946     12948     12945     12943     12946     12949
     12950     12953     12956     12957     12950     12953     12956     12958
     12950     12953     12956     12959     12951     12950     12953     12954
     12951     12950     12953     12955     12951     12950     12953     12956
     12952     12950     12953     12954     12952     12950     12953     12955
     12952     12950     12953     12956     12953     12956     12959     12960
     12953     12956     12959     12961     12953     12956     12959     12962
     12954     12953     12956     12957     12954     12953     12956     12958
     12954     12953     12956     12959     12955     12953     12956     12957
     12955     12953     12956     12958     12955     12953     12956     12959
     12956     12959     12962     12963     12956     12959     12962     12964
     12956     12959     12962     12965     12957     12956     12959     12960
     12957     12956     12959     12961     12957     12956     12959     12962
     12958     12956     12959     12960     12958     12956     12959     12961
     12958     12956     12959     12962     12959     12962     12965     12966
     12959     12962     12965     12967     12959     12962     12965     12968
     12960     12959     12962     12963     12960     12959     12962     12964
     12960     12959     12962     12965     12961     12959     12962     12963
     12961     12959     12962     12964     12961     12959     12962     12965
     12962     12965     12968     12969     12962     12965     12968     12970
     12962     12965     12968     12971     12963     12962     12965     12966
     12963     12962     12965     12967     12963     12962     12965     12968
     12964     12962     12965     12966     12964     12962     12965     12967
     12964     12962     12965     12968     12965     12968     12971     12972
     12965     12968     12971     12973     12965     12968     12971     12974
     12966     12965     12968     12969     12966     12965     12968     12970
     12966     12965     12968     12971     12967     12965     12968     12969
     12967     12965     12968     12970     12967     12965     12968     12971
     12968     12971     12974     12975     12968     12971     12974     12976
     12968     12971     12974     12977     12969     12968     12971     12972
     12969     12968     12971     12973     12969     12968     12971     12974
     12970     12968     12971     12972     12970     12968     12971     12973
     12970     12968     12971     12974     12971     12974     12977     12978
     12971     12974     12977     12979     12971     12974     12977     12980
     12972     12971     12974     12975     12972     12971     12974     12976
     12972     12971     12974     12977     12973     12971     12974     12975
     12973     12971     12974     12976     12973     12971     12974     12977
     12974     12977     12980     12981     12974     12977     12980     12982
     12974     12977     12980     12983     12975     12974     12977     12978
     12975     12974     12977     12979     12975     12974     12977     12980
     12976     12974     12977     12978     12976     12974     12977     12979
     12976     12974     12977     12980     12977     12980     12983     12984
     12977     12980     12983     12985     12977     12980     12983     12986
     12978     12977     12980     12981     12978     12977     12980     12982
     12978     12977     12980     12983     12979     12977     12980     12981
     12979     12977     12980     12982     12979     12977     12980     12983
     12980     12983     12986     12987     12980     12983     12986     12988
     12980     12983     12986     12989     12981     12980     12983     12984
     12981     12980     12983     12985     12981     12980     12983     12986
     12982     12980     12983     12984     12982     12980     12983     12985
     12982     12980     12983     12986     12983     12986     12989     12990
     12983     12986     12989     12991     12983     12986     12989     12992
     12984     12983     12986     12987     12984     12983     12986     12988
     12984     12983     12986     12989     12985     12983     12986     12987
     12985     12983     12986     12988     12985     12983     12986     12989
     12987     12986     12989     12990     12987     12986     12989     12991
     12987     12986     12989     12992     12988     12986     12989     12990
     12988     12986     12989     12991     12988     12986     12989     12992
     12993     12994     13009     13010     12993     12994     13009     13011
     12993     12994     13009     13015     12994     12993     12997     12998
     12994     12993     12997     12999     12994     12993     12997     13000
     12994     12993     13001     13002     12994     12993     13001     13003
     12994     12993     13001     13004     12994     12993     13005     13006
     12994     12993     13005     13007     12994     12993     13005     13008
     12994     13009     13015     13012     12995     12994     12993     12997
     12995     12994     12993     13001     12995     12994     12993     13005
     12995     12994     13009     13010     12995     12994     13009     13011
     12995     12994     13009     13015     12996     12994     12993     12997
     12996     12994     12993     13001     12996     12994     12993     13005
     12996     12994     13009     13010     12996     12994     13009     13011
     12996     12994     13009     13015     12997     12993     12994     13009
     12997     12993     13001     13002     12997     12993     13001     13003
     12997     12993     13001     13004     12997     12993     13005     13006
     12997     12993     13005     13007     12997     12993     13005     13008
     12998     12997     12993     13001     12998     12997     12993     13005
     12999     12997     12993     13001     12999     12997     12993     13005
     13000     12997     12993     13001     13000     12997     12993     13005
     13001     12993     12994     13009     13001     12993     13005     13006
     13001     12993     13005     13007     13001     12993     13005     13008
     13002     13001     12993     13005     13003     13001     12993     13005
     13004     13001     12993     13005     13005     12993     12994     13009
     13009     13015     13012     13013     13009     13015     13012     13014
     13009     13015     13012     13016     13010     13009     13015     13012
     13011     13009     13015     13012     13012     13016     13017     13018
     13012     13016     13017     13019     13012     13016     13017     13020
     13013     13012     13016     13017     13014     13012     13016     13017
     13015     13012     13016     13017     13016     13017     13020     13021
     13016     13017     13020     13022     13016     13017     13020     13028
     13017     13020     13022     13023     13017     13020     13028     13029
     13017     13020     13028     13030     13017     13020     13028     13031
     13018     13017     13020     13021     13018     13017     13020     13022
     13018     13017     13020     13028     13019     13017     13020     13021
     13019     13017     13020     13022     13019     13017     13020     13028
     13020     13022     13023     13024     13020     13022     13023     13025
     13020     13028     13031     13032     13021     13020     13022     13023
     13021     13020     13028     13029     13021     13020     13028     13030
     13021     13020     13028     13031     13022     13020     13028     13029
     13022     13020     13028     13030     13022     13020     13028     13031
     13022     13023     13025     13026     13022     13023     13025     13027
     13022     13023     13025     13037     13023     13022     13020     13028
     13023     13025     13037     13038     13023     13025     13037     13039
     13023     13025     13037     13040     13024     13023     13025     13026
     13024     13023     13025     13027     13024     13023     13025     13037
     13025     13037     13040     13041     13025     13037     13040     13042
     13025     13037     13040     13043     13026     13025     13037     13038
     13026     13025     13037     13039     13026     13025     13037     13040
     13027     13025     13037     13038     13027     13025     13037     13039
     13027     13025     13037     13040     13028     13031     13032     13033
     13028     13031     13032     13034     13029     13028     13031     13032
     13030     13028     13031     13032     13031     13032     13034     13035
     13031     13032     13034     13036     13031     13032     13034     13084
     13032     13034     13084     13085     13032     13034     13084     13086
     13032     13034     13084     13087     13033     13032     13034     13035
     13033     13032     13034     13036     13033     13032     13034     13084
     13034     13084     13087     13088     13034     13084     13087     13089
     13034     13084     13087     13090     13035     13034     13084     13085
     13035     13034     13084     13086     13035     13034     13084     13087
     13036     13034     13084     13085     13036     13034     13084     13086
     13036     13034     13084     13087     13037     13040     13043     13044
     13037     13040     13043     13045     13037     13040     13043     13046
     13038     13037     13040     13041     13038     13037     13040     13042
     13038     13037     13040     13043     13039     13037     13040     13041
     13039     13037     13040     13042     13039     13037     13040     13043
     13040     13043     13046     13047     13040     13043     13046     13048
     13040     13043     13046     13049     13041     13040     13043     13044
     13041     13040     13043     13045     13041     13040     13043     13046
     13042     13040     13043     13044     13042     13040     13043     13045
     13042     13040     13043     13046     13043     13046     13049     13050
     13043     13046     13049     13051     13043     13046     13049     13052
     13044     13043     13046     13047     13044     13043     13046     13048
     13044     13043     13046     13049     13045     13043     13046     13047
     13045     13043     13046     13048     13045     13043     13046     13049
     13046     13049     13052     13053     13046     13049     13052     13054
     13046     13049     13052     13055     13047     13046     13049     13050
     13047     13046     13049     13051     13047     13046     13049     13052
     13048     13046     13049     13050     13048     13046     13049     13051
     13048     13046     13049     13052     13049     13052     13055     13056
     13049     13052     13055     13057     13050     13049     13052     13053
     13050     13049     13052     13054     13050     13049     13052     13055
     13051     13049     13052     13053     13051     13049     13052     13054
     13051     13049     13052     13055     13052     13055     13057     13058
     13052     13055     13057     13059     13053     13052     13055     13056
     13053     13052     13055     13057     13054     13052     13055     13056
     13054     13052     13055     13057     13055     13057     13059     13060
     13055     13057     13059     13061     13055     13057     13059     13062
     13056     13055     13057     13058     13056     13055     13057     13059
     13057     13059     13062     13063     13057     13059     13062     13064
     13057     13059     13062     13065     13058     13057     13059     13060
     13058     13057     13059     13061     13058     13057     13059     13062
     13059     13062     13065     13066     13059     13062     13065     13067
     13059     13062     13065     13068     13060     13059     13062     13063
     13060     13059     13062     13064     13060     13059     13062     13065
     13061     13059     13062     13063     13061     13059     13062     13064
     13061     13059     13062     13065     13062     13065     13068     13069
     13062     13065     13068     13070     13062     13065     13068     13071
     13063     13062     13065     13066     13063     13062     13065     13067
     13063     13062     13065     13068     13064     13062     13065     13066
     13064     13062     13065     13067     13064     13062     13065     13068
     13065     13068     13071     13072     13065     13068     13071     13073
     13065     13068     13071     13074     13066     13065     13068     13069
     13066     13065     13068     13070     13066     13065     13068     13071
     13067     13065     13068     13069     13067     13065     13068     13070
     13067     13065     13068     13071     13068     13071     13074     13075
     13068     13071     13074     13076     13068     13071     13074     13077
     13069     13068     13071     13072     13069     13068     13071     13073
     13069     13068     13071     13074     13070     13068     13071     13072
     13070     13068     13071     13073     13070     13068     13071     13074
     13071     13074     13077     13078     13071     13074     13077     13079
     13071     13074     13077     13080     13072     13071     13074     13075
     13072     13071     13074     13076     13072     13071     13074     13077
     13073     13071     13074     13075     13073     13071     13074     13076
     13073     13071     13074     13077     13074     13077     13080     13081
     13074     13077     13080     13082     13074     13077     13080     13083
     13075     13074     13077     13078     13075     13074     13077     13079
     13075     13074     13077     13080     13076     13074     13077     13078
     13076     13074     13077     13079     13076     13074     13077     13080
     13078     13077     13080     13081     13078     13077     13080     13082
     13078     13077     13080     13083     13079     13077     13080     13081
     13079     13077     13080     13082     13079     13077     13080     13083
     13084     13087     13090     13091     13084     13087     13090     13092
     13084     13087     13090     13093     13085     13084     13087     13088
     13085     13084     13087     13089     13085     13084     13087     13090
     13086     13084     13087     13088     13086     13084     13087     13089
     13086     13084     13087     13090     13087     13090     13093     13094
     13087     13090     13093     13095     13087     13090     13093     13096
     13088     13087     13090     13091     13088     13087     13090     13092
     13088     13087     13090     13093     13089     13087     13090     13091
     13089     13087     13090     13092     13089     13087     13090     13093
     13090     13093     13096     13097     13090     13093     13096     13098
     13090     13093     13096     13099     13091     13090     13093     13094
     13091     13090     13093     13095     13091     13090     13093     13096
     13092     13090     13093     13094     13092     13090     13093     13095
     13092     13090     13093     13096     13093     13096     13099     13100
     13093     13096     13099     13101     13093     13096     13099     13102
     13094     13093     13096     13097     13094     13093     13096     13098
     13094     13093     13096     13099     13095     13093     13096     13097
     13095     13093     13096     13098     13095     13093     13096     13099
     13096     13099     13102     13103     13096     13099     13102     13104
     13096     13099     13102     13105     13097     13096     13099     13100
     13097     13096     13099     13101     13097     13096     13099     13102
     13098     13096     13099     13100     13098     13096     13099     13101
     13098     13096     13099     13102     13099     13102     13105     13106
     13099     13102     13105     13107     13099     13102     13105     13108
     13100     13099     13102     13103     13100     13099     13102     13104
     13100     13099     13102     13105     13101     13099     13102     13103
     13101     13099     13102     13104     13101     13099     13102     13105
     13102     13105     13108     13109     13102     13105     13108     13110
     13102     13105     13108     13111     13103     13102     13105     13106
     13103     13102     13105     13107     13103     13102     13105     13108
     13104     13102     13105     13106     13104     13102     13105     13107
     13104     13102     13105     13108     13105     13108     13111     13112
     13105     13108     13111     13113     13105     13108     13111     13114
     13106     13105     13108     13109     13106     13105     13108     13110
     13106     13105     13108     13111     13107     13105     13108     13109
     13107     13105     13108     13110     13107     13105     13108     13111
     13108     13111     13114     13115     13108     13111     13114     13116
     13108     13111     13114     13117     13109     13108     13111     13112
     13109     13108     13111     13113     13109     13108     13111     13114
     13110     13108     13111     13112     13110     13108     13111     13113
     13110     13108     13111     13114     13111     13114     13117     13118
     13111     13114     13117     13119     13111     13114     13117     13120
     13112     13111     13114     13115     13112     13111     13114     13116
     13112     13111     13114     13117     13113     13111     13114     13115
     13113     13111     13114     13116     13113     13111     13114     13117
     13114     13117     13120     13121     13114     13117     13120     13122
     13114     13117     13120     13123     13115     13114     13117     13118
     13115     13114     13117     13119     13115     13114     13117     13120
     13116     13114     13117     13118     13116     13114     13117     13119
     13116     13114     13117     13120     13117     13120     13123     13124
     13117     13120     13123     13125     13117     13120     13123     13126
     13118     13117     13120     13121     13118     13117     13120     13122
     13118     13117     13120     13123     13119     13117     13120     13121
     13119     13117     13120     13122     13119     13117     13120     13123
     13121     13120     13123     13124     13121     13120     13123     13125
     13121     13120     13123     13126     13122     13120     13123     13124
     13122     13120     13123     13125     13122     13120     13123     13126
     13127     13128     13143     13144     13127     13128     13143     13145
     13127     13128     13143     13149     13128     13127     13131     13132
     13128     13127     13131     13133     13128     13127     13131     13134
     13128     13127     13135     13136     13128     13127     13135     13137
     13128     13127     13135     13138     13128     13127     13139     13140
     13128     13127     13139     13141     13128     13127     13139     13142
     13128     13143     13149     13146     13129     13128     13127     13131
     13129     13128     13127     13135     13129     13128     13127     13139
     13129     13128     13143     13144     13129     13128     13143     13145
     13129     13128     13143     13149     13130     13128     13127     13131
     13130     13128     13127     13135     13130     13128     13127     13139
     13130     13128     13143     13144     13130     13128     13143     13145
     13130     13128     13143     13149     13131     13127     13128     13143
     13131     13127     13135     13136     13131     13127     13135     13137
     13131     13127     13135     13138     13131     13127     13139     13140
     13131     13127     13139     13141     13131     13127     13139     13142
     13132     13131     13127     13135     13132     13131     13127     13139
     13133     13131     13127     13135     13133     13131     13127     13139
     13134     13131     13127     13135     13134     13131     13127     13139
     13135     13127     13128     13143     13135     13127     13139     13140
     13135     13127     13139     13141     13135     13127     13139     13142
     13136     13135     13127     13139     13137     13135     13127     13139
     13138     13135     13127     13139     13139     13127     13128     13143
     13143     13149     13146     13147     13143     13149     13146     13148
     13143     13149     13146     13150     13144     13143     13149     13146
     13145     13143     13149     13146     13146     13150     13151     13152
     13146     13150     13151     13153     13146     13150     13151     13154
     13147     13146     13150     13151     13148     13146     13150     13151
     13149     13146     13150     13151     13150     13151     13154     13155
     13150     13151     13154     13156     13150     13151     13154     13162
     13151     13154     13156     13157     13151     13154     13162     13163
     13151     13154     13162     13164     13151     13154     13162     13165
     13152     13151     13154     13155     13152     13151     13154     13156
     13152     13151     13154     13162     13153     13151     13154     13155
     13153     13151     13154     13156     13153     13151     13154     13162
     13154     13156     13157     13158     13154     13156     13157     13159
     13154     13162     13165     13166     13155     13154     13156     13157
     13155     13154     13162     13163     13155     13154     13162     13164
     13155     13154     13162     13165     13156     13154     13162     13163
     13156     13154     13162     13164     13156     13154     13162     13165
     13156     13157     13159     13160     13156     13157     13159     13161
     13156     13157     13159     13171     13157     13156     13154     13162
     13157     13159     13171     13172     13157     13159     13171     13173
     13157     13159     13171     13174     13158     13157     13159     13160
     13158     13157     13159     13161     13158     13157     13159     13171
     13159     13171     13174     13175     13159     13171     13174     13176
     13159     13171     13174     13177     13160     13159     13171     13172
     13160     13159     13171     13173     13160     13159     13171     13174
     13161     13159     13171     13172     13161     13159     13171     13173
     13161     13159     13171     13174     13162     13165     13166     13167
     13162     13165     13166     13168     13163     13162     13165     13166
     13164     13162     13165     13166     13165     13166     13168     13169
     13165     13166     13168     13170     13165     13166     13168     13218
     13166     13168     13218     13219     13166     13168     13218     13220
     13166     13168     13218     13221     13167     13166     13168     13169
     13167     13166     13168     13170     13167     13166     13168     13218
     13168     13218     13221     13222     13168     13218     13221     13223
     13168     13218     13221     13224     13169     13168     13218     13219
     13169     13168     13218     13220     13169     13168     13218     13221
     13170     13168     13218     13219     13170     13168     13218     13220
     13170     13168     13218     13221     13171     13174     13177     13178
     13171     13174     13177     13179     13171     13174     13177     13180
     13172     13171     13174     13175     13172     13171     13174     13176
     13172     13171     13174     13177     13173     13171     13174     13175
     13173     13171     13174     13176     13173     13171     13174     13177
     13174     13177     13180     13181     13174     13177     13180     13182
     13174     13177     13180     13183     13175     13174     13177     13178
     13175     13174     13177     13179     13175     13174     13177     13180
     13176     13174     13177     13178     13176     13174     13177     13179
     13176     13174     13177     13180     13177     13180     13183     13184
     13177     13180     13183     13185     13177     13180     13183     13186
     13178     13177     13180     13181     13178     13177     13180     13182
     13178     13177     13180     13183     13179     13177     13180     13181
     13179     13177     13180     13182     13179     13177     13180     13183
     13180     13183     13186     13187     13180     13183     13186     13188
     13180     13183     13186     13189     13181     13180     13183     13184
     13181     13180     13183     13185     13181     13180     13183     13186
     13182     13180     13183     13184     13182     13180     13183     13185
     13182     13180     13183     13186     13183     13186     13189     13190
     13183     13186     13189     13191     13184     13183     13186     13187
     13184     13183     13186     13188     13184     13183     13186     13189
     13185     13183     13186     13187     13185     13183     13186     13188
     13185     13183     13186     13189     13186     13189     13191     13192
     13186     13189     13191     13193     13187     13186     13189     13190
     13187     13186     13189     13191     13188     13186     13189     13190
     13188     13186     13189     13191     13189     13191     13193     13194
     13189     13191     13193     13195     13189     13191     13193     13196
     13190     13189     13191     13192     13190     13189     13191     13193
     13191     13193     13196     13197     13191     13193     13196     13198
     13191     13193     13196     13199     13192     13191     13193     13194
     13192     13191     13193     13195     13192     13191     13193     13196
     13193     13196     13199     13200     13193     13196     13199     13201
     13193     13196     13199     13202     13194     13193     13196     13197
     13194     13193     13196     13198     13194     13193     13196     13199
     13195     13193     13196     13197     13195     13193     13196     13198
     13195     13193     13196     13199     13196     13199     13202     13203
     13196     13199     13202     13204     13196     13199     13202     13205
     13197     13196     13199     13200     13197     13196     13199     13201
     13197     13196     13199     13202     13198     13196     13199     13200
     13198     13196     13199     13201     13198     13196     13199     13202
     13199     13202     13205     13206     13199     13202     13205     13207
     13199     13202     13205     13208     13200     13199     13202     13203
     13200     13199     13202     13204     13200     13199     13202     13205
     13201     13199     13202     13203     13201     13199     13202     13204
     13201     13199     13202     13205     13202     13205     13208     13209
     13202     13205     13208     13210     13202     13205     13208     13211
     13203     13202     13205     13206     13203     13202     13205     13207
     13203     13202     13205     13208     13204     13202     13205     13206
     13204     13202     13205     13207     13204     13202     13205     13208
     13205     13208     13211     13212     13205     13208     13211     13213
     13205     13208     13211     13214     13206     13205     13208     13209
     13206     13205     13208     13210     13206     13205     13208     13211
     13207     13205     13208     13209     13207     13205     13208     13210
     13207     13205     13208     13211     13208     13211     13214     13215
     13208     13211     13214     13216     13208     13211     13214     13217
     13209     13208     13211     13212     13209     13208     13211     13213
     13209     13208     13211     13214     13210     13208     13211     13212
     13210     13208     13211     13213     13210     13208     13211     13214
     13212     13211     13214     13215     13212     13211     13214     13216
     13212     13211     13214     13217     13213     13211     13214     13215
     13213     13211     13214     13216     13213     13211     13214     13217
     13218     13221     13224     13225     13218     13221     13224     13226
     13218     13221     13224     13227     13219     13218     13221     13222
     13219     13218     13221     13223     13219     13218     13221     13224
     13220     13218     13221     13222     13220     13218     13221     13223
     13220     13218     13221     13224     13221     13224     13227     13228
     13221     13224     13227     13229     13221     13224     13227     13230
     13222     13221     13224     13225     13222     13221     13224     13226
     13222     13221     13224     13227     13223     13221     13224     13225
     13223     13221     13224     13226     13223     13221     13224     13227
     13224     13227     13230     13231     13224     13227     13230     13232
     13224     13227     13230     13233     13225     13224     13227     13228
     13225     13224     13227     13229     13225     13224     13227     13230
     13226     13224     13227     13228     13226     13224     13227     13229
     13226     13224     13227     13230     13227     13230     13233     13234
     13227     13230     13233     13235     13227     13230     13233     13236
     13228     13227     13230     13231     13228     13227     13230     13232
     13228     13227     13230     13233     13229     13227     13230     13231
     13229     13227     13230     13232     13229     13227     13230     13233
     13230     13233     13236     13237     13230     13233     13236     13238
     13230     13233     13236     13239     13231     13230     13233     13234
     13231     13230     13233     13235     13231     13230     13233     13236
     13232     13230     13233     13234     13232     13230     13233     13235
     13232     13230     13233     13236     13233     13236     13239     13240
     13233     13236     13239     13241     13233     13236     13239     13242
     13234     13233     13236     13237     13234     13233     13236     13238
     13234     13233     13236     13239     13235     13233     13236     13237
     13235     13233     13236     13238     13235     13233     13236     13239
     13236     13239     13242     13243     13236     13239     13242     13244
     13236     13239     13242     13245     13237     13236     13239     13240
     13237     13236     13239     13241     13237     13236     13239     13242
     13238     13236     13239     13240     13238     13236     13239     13241
     13238     13236     13239     13242     13239     13242     13245     13246
     13239     13242     13245     13247     13239     13242     13245     13248
     13240     13239     13242     13243     13240     13239     13242     13244
     13240     13239     13242     13245     13241     13239     13242     13243
     13241     13239     13242     13244     13241     13239     13242     13245
     13242     13245     13248     13249     13242     13245     13248     13250
     13242     13245     13248     13251     13243     13242     13245     13246
     13243     13242     13245     13247     13243     13242     13245     13248
     13244     13242     13245     13246     13244     13242     13245     13247
     13244     13242     13245     13248     13245     13248     13251     13252
     13245     13248     13251     13253     13245     13248     13251     13254
     13246     13245     13248     13249     13246     13245     13248     13250
     13246     13245     13248     13251     13247     13245     13248     13249
     13247     13245     13248     13250     13247     13245     13248     13251
     13248     13251     13254     13255     13248     13251     13254     13256
     13248     13251     13254     13257     13249     13248     13251     13252
     13249     13248     13251     13253     13249     13248     13251     13254
     13250     13248     13251     13252     13250     13248     13251     13253
     13250     13248     13251     13254     13251     13254     13257     13258
     13251     13254     13257     13259     13251     13254     13257     13260
     13252     13251     13254     13255     13252     13251     13254     13256
     13252     13251     13254     13257     13253     13251     13254     13255
     13253     13251     13254     13256     13253     13251     13254     13257
     13255     13254     13257     13258     13255     13254     13257     13259
     13255     13254     13257     13260     13256     13254     13257     13258
     13256     13254     13257     13259     13256     13254     13257     13260
     13261     13262     13277     13278     13261     13262     13277     13279
     13261     13262     13277     13283     13262     13261     13265     13266
     13262     13261     13265     13267     13262     13261     13265     13268
     13262     13261     13269     13270     13262     13261     13269     13271
     13262     13261     13269     13272     13262     13261     13273     13274
     13262     13261     13273     13275     13262     13261     13273     13276
     13262     13277     13283     13280     13263     13262     13261     13265
     13263     13262     13261     13269     13263     13262     13261     13273
     13263     13262     13277     13278     13263     13262     13277     13279
     13263     13262     13277     13283     13264     13262     13261     13265
     13264     13262     13261     13269     13264     13262     13261     13273
     13264     13262     13277     13278     13264     13262     13277     13279
     13264     13262     13277     13283     13265     13261     13262     13277
     13265     13261     13269     13270     13265     13261     13269     13271
     13265     13261     13269     13272     13265     13261     13273     13274
     13265     13261     13273     13275     13265     13261     13273     13276
     13266     13265     13261     13269     13266     13265     13261     13273
     13267     13265     13261     13269     13267     13265     13261     13273
     13268     13265     13261     13269     13268     13265     13261     13273
     13269     13261     13262     13277     13269     13261     13273     13274
     13269     13261     13273     13275     13269     13261     13273     13276
     13270     13269     13261     13273     13271     13269     13261     13273
     13272     13269     13261     13273     13273     13261     13262     13277
     13277     13283     13280     13281     13277     13283     13280     13282
     13277     13283     13280     13284     13278     13277     13283     13280
     13279     13277     13283     13280     13280     13284     13285     13286
     13280     13284     13285     13287     13280     13284     13285     13288
     13281     13280     13284     13285     13282     13280     13284     13285
     13283     13280     13284     13285     13284     13285     13288     13289
     13284     13285     13288     13290     13284     13285     13288     13296
     13285     13288     13290     13291     13285     13288     13296     13297
     13285     13288     13296     13298     13285     13288     13296     13299
     13286     13285     13288     13289     13286     13285     13288     13290
     13286     13285     13288     13296     13287     13285     13288     13289
     13287     13285     13288     13290     13287     13285     13288     13296
     13288     13290     13291     13292     13288     13290     13291     13293
     13288     13296     13299     13300     13289     13288     13290     13291
     13289     13288     13296     13297     13289     13288     13296     13298
     13289     13288     13296     13299     13290     13288     13296     13297
     13290     13288     13296     13298     13290     13288     13296     13299
     13290     13291     13293     13294     13290     13291     13293     13295
     13290     13291     13293     13305     13291     13290     13288     13296
     13291     13293     13305     13306     13291     13293     13305     13307
     13291     13293     13305     13308     13292     13291     13293     13294
     13292     13291     13293     13295     13292     13291     13293     13305
     13293     13305     13308     13309     13293     13305     13308     13310
     13293     13305     13308     13311     13294     13293     13305     13306
     13294     13293     13305     13307     13294     13293     13305     13308
     13295     13293     13305     13306     13295     13293     13305     13307
     13295     13293     13305     13308     13296     13299     13300     13301
     13296     13299     13300     13302     13297     13296     13299     13300
     13298     13296     13299     13300     13299     13300     13302     13303
     13299     13300     13302     13304     13299     13300     13302     13352
     13300     13302     13352     13353     13300     13302     13352     13354
     13300     13302     13352     13355     13301     13300     13302     13303
     13301     13300     13302     13304     13301     13300     13302     13352
     13302     13352     13355     13356     13302     13352     13355     13357
     13302     13352     13355     13358     13303     13302     13352     13353
     13303     13302     13352     13354     13303     13302     13352     13355
     13304     13302     13352     13353     13304     13302     13352     13354
     13304     13302     13352     13355     13305     13308     13311     13312
     13305     13308     13311     13313     13305     13308     13311     13314
     13306     13305     13308     13309     13306     13305     13308     13310
     13306     13305     13308     13311     13307     13305     13308     13309
     13307     13305     13308     13310     13307     13305     13308     13311
     13308     13311     13314     13315     13308     13311     13314     13316
     13308     13311     13314     13317     13309     13308     13311     13312
     13309     13308     13311     13313     13309     13308     13311     13314
     13310     13308     13311     13312     13310     13308     13311     13313
     13310     13308     13311     13314     13311     13314     13317     13318
     13311     13314     13317     13319     13311     13314     13317     13320
     13312     13311     13314     13315     13312     13311     13314     13316
     13312     13311     13314     13317     13313     13311     13314     13315
     13313     13311     13314     13316     13313     13311     13314     13317
     13314     13317     13320     13321     13314     13317     13320     13322
     13314     13317     13320     13323     13315     13314     13317     13318
     13315     13314     13317     13319     13315     13314     13317     13320
     13316     13314     13317     13318     13316     13314     13317     13319
     13316     13314     13317     13320     13317     13320     13323     13324
     13317     13320     13323     13325     13318     13317     13320     13321
     13318     13317     13320     13322     13318     13317     13320     13323
     13319     13317     13320     13321     13319     13317     13320     13322
     13319     13317     13320     13323     13320     13323     13325     13326
     13320     13323     13325     13327     13321     13320     13323     13324
     13321     13320     13323     13325     13322     13320     13323     13324
     13322     13320     13323     13325     13323     13325     13327     13328
     13323     13325     13327     13329     13323     13325     13327     13330
     13324     13323     13325     13326     13324     13323     13325     13327
     13325     13327     13330     13331     13325     13327     13330     13332
     13325     13327     13330     13333     13326     13325     13327     13328
     13326     13325     13327     13329     13326     13325     13327     13330
     13327     13330     13333     13334     13327     13330     13333     13335
     13327     13330     13333     13336     13328     13327     13330     13331
     13328     13327     13330     13332     13328     13327     13330     13333
     13329     13327     13330     13331     13329     13327     13330     13332
     13329     13327     13330     13333     13330     13333     13336     13337
     13330     13333     13336     13338     13330     13333     13336     13339
     13331     13330     13333     13334     13331     13330     13333     13335
     13331     13330     13333     13336     13332     13330     13333     13334
     13332     13330     13333     13335     13332     13330     13333     13336
     13333     13336     13339     13340     13333     13336     13339     13341
     13333     13336     13339     13342     13334     13333     13336     13337
     13334     13333     13336     13338     13334     13333     13336     13339
     13335     13333     13336     13337     13335     13333     13336     13338
     13335     13333     13336     13339     13336     13339     13342     13343
     13336     13339     13342     13344     13336     13339     13342     13345
     13337     13336     13339     13340     13337     13336     13339     13341
     13337     13336     13339     13342     13338     13336     13339     13340
     13338     13336     13339     13341     13338     13336     13339     13342
     13339     13342     13345     13346     13339     13342     13345     13347
     13339     13342     13345     13348     13340     13339     13342     13343
     13340     13339     13342     13344     13340     13339     13342     13345
     13341     13339     13342     13343     13341     13339     13342     13344
     13341     13339     13342     13345     13342     13345     13348     13349
     13342     13345     13348     13350     13342     13345     13348     13351
     13343     13342     13345     13346     13343     13342     13345     13347
     13343     13342     13345     13348     13344     13342     13345     13346
     13344     13342     13345     13347     13344     13342     13345     13348
     13346     13345     13348     13349     13346     13345     13348     13350
     13346     13345     13348     13351     13347     13345     13348     13349
     13347     13345     13348     13350     13347     13345     13348     13351
     13352     13355     13358     13359     13352     13355     13358     13360
     13352     13355     13358     13361     13353     13352     13355     13356
     13353     13352     13355     13357     13353     13352     13355     13358
     13354     13352     13355     13356     13354     13352     13355     13357
     13354     13352     13355     13358     13355     13358     13361     13362
     13355     13358     13361     13363     13355     13358     13361     13364
     13356     13355     13358     13359     13356     13355     13358     13360
     13356     13355     13358     13361     13357     13355     13358     13359
     13357     13355     13358     13360     13357     13355     13358     13361
     13358     13361     13364     13365     13358     13361     13364     13366
     13358     13361     13364     13367     13359     13358     13361     13362
     13359     13358     13361     13363     13359     13358     13361     13364
     13360     13358     13361     13362     13360     13358     13361     13363
     13360     13358     13361     13364     13361     13364     13367     13368
     13361     13364     13367     13369     13361     13364     13367     13370
     13362     13361     13364     13365     13362     13361     13364     13366
     13362     13361     13364     13367     13363     13361     13364     13365
     13363     13361     13364     13366     13363     13361     13364     13367
     13364     13367     13370     13371     13364     13367     13370     13372
     13364     13367     13370     13373     13365     13364     13367     13368
     13365     13364     13367     13369     13365     13364     13367     13370
     13366     13364     13367     13368     13366     13364     13367     13369
     13366     13364     13367     13370     13367     13370     13373     13374
     13367     13370     13373     13375     13367     13370     13373     13376
     13368     13367     13370     13371     13368     13367     13370     13372
     13368     13367     13370     13373     13369     13367     13370     13371
     13369     13367     13370     13372     13369     13367     13370     13373
     13370     13373     13376     13377     13370     13373     13376     13378
     13370     13373     13376     13379     13371     13370     13373     13374
     13371     13370     13373     13375     13371     13370     13373     13376
     13372     13370     13373     13374     13372     13370     13373     13375
     13372     13370     13373     13376     13373     13376     13379     13380
     13373     13376     13379     13381     13373     13376     13379     13382
     13374     13373     13376     13377     13374     13373     13376     13378
     13374     13373     13376     13379     13375     13373     13376     13377
     13375     13373     13376     13378     13375     13373     13376     13379
     13376     13379     13382     13383     13376     13379     13382     13384
     13376     13379     13382     13385     13377     13376     13379     13380
     13377     13376     13379     13381     13377     13376     13379     13382
     13378     13376     13379     13380     13378     13376     13379     13381
     13378     13376     13379     13382     13379     13382     13385     13386
     13379     13382     13385     13387     13379     13382     13385     13388
     13380     13379     13382     13383     13380     13379     13382     13384
     13380     13379     13382     13385     13381     13379     13382     13383
     13381     13379     13382     13384     13381     13379     13382     13385
     13382     13385     13388     13389     13382     13385     13388     13390
     13382     13385     13388     13391     13383     13382     13385     13386
     13383     13382     13385     13387     13383     13382     13385     13388
     13384     13382     13385     13386     13384     13382     13385     13387
     13384     13382     13385     13388     13385     13388     13391     13392
     13385     13388     13391     13393     13385     13388     13391     13394
     13386     13385     13388     13389     13386     13385     13388     13390
     13386     13385     13388     13391     13387     13385     13388     13389
     13387     13385     13388     13390     13387     13385     13388     13391
     13389     13388     13391     13392     13389     13388     13391     13393
     13389     13388     13391     13394     13390     13388     13391     13392
     13390     13388     13391     13393     13390     13388     13391     13394
     13395     13396     13411     13412     13395     13396     13411     13413
     13395     13396     13411     13417     13396     13395     13399     13400
     13396     13395     13399     13401     13396     13395     13399     13402
     13396     13395     13403     13404     13396     13395     13403     13405
     13396     13395     13403     13406     13396     13395     13407     13408
     13396     13395     13407     13409     13396     13395     13407     13410
     13396     13411     13417     13414     13397     13396     13395     13399
     13397     13396     13395     13403     13397     13396     13395     13407
     13397     13396     13411     13412     13397     13396     13411     13413
     13397     13396     13411     13417     13398     13396     13395     13399
     13398     13396     13395     13403     13398     13396     13395     13407
     13398     13396     13411     13412     13398     13396     13411     13413
     13398     13396     13411     13417     13399     13395     13396     13411
     13399     13395     13403     13404     13399     13395     13403     13405
     13399     13395     13403     13406     13399     13395     13407     13408
     13399     13395     13407     13409     13399     13395     13407     13410
     13400     13399     13395     13403     13400     13399     13395     13407
     13401     13399     13395     13403     13401     13399     13395     13407
     13402     13399     13395     13403     13402     13399     13395     13407
     13403     13395     13396     13411     13403     13395     13407     13408
     13403     13395     13407     13409     13403     13395     13407     13410
     13404     13403     13395     13407     13405     13403     13395     13407
     13406     13403     13395     13407     13407     13395     13396     13411
     13411     13417     13414     13415     13411     13417     13414     13416
     13411     13417     13414     13418     13412     13411     13417     13414
     13413     13411     13417     13414     13414     13418     13419     13420
     13414     13418     13419     13421     13414     13418     13419     13422
     13415     13414     13418     13419     13416     13414     13418     13419
     13417     13414     13418     13419     13418     13419     13422     13423
     13418     13419     13422     13424     13418     13419     13422     13430
     13419     13422     13424     13425     13419     13422     13430     13431
     13419     13422     13430     13432     13419     13422     13430     13433
     13420     13419     13422     13423     13420     13419     13422     13424
     13420     13419     13422     13430     13421     13419     13422     13423
     13421     13419     13422     13424     13421     13419     13422     13430
     13422     13424     13425     13426     13422     13424     13425     13427
     13422     13430     13433     13434     13423     13422     13424     13425
     13423     13422     13430     13431     13423     13422     13430     13432
     13423     13422     13430     13433     13424     13422     13430     13431
     13424     13422     13430     13432     13424     13422     13430     13433
     13424     13425     13427     13428     13424     13425     13427     13429
     13424     13425     13427     13439     13425     13424     13422     13430
     13425     13427     13439     13440     13425     13427     13439     13441
     13425     13427     13439     13442     13426     13425     13427     13428
     13426     13425     13427     13429     13426     13425     13427     13439
     13427     13439     13442     13443     13427     13439     13442     13444
     13427     13439     13442     13445     13428     13427     13439     13440
     13428     13427     13439     13441     13428     13427     13439     13442
     13429     13427     13439     13440     13429     13427     13439     13441
     13429     13427     13439     13442     13430     13433     13434     13435
     13430     13433     13434     13436     13431     13430     13433     13434
     13432     13430     13433     13434     13433     13434     13436     13437
     13433     13434     13436     13438     13433     13434     13436     13486
     13434     13436     13486     13487     13434     13436     13486     13488
     13434     13436     13486     13489     13435     13434     13436     13437
     13435     13434     13436     13438     13435     13434     13436     13486
     13436     13486     13489     13490     13436     13486     13489     13491
     13436     13486     13489     13492     13437     13436     13486     13487
     13437     13436     13486     13488     13437     13436     13486     13489
     13438     13436     13486     13487     13438     13436     13486     13488
     13438     13436     13486     13489     13439     13442     13445     13446
     13439     13442     13445     13447     13439     13442     13445     13448
     13440     13439     13442     13443     13440     13439     13442     13444
     13440     13439     13442     13445     13441     13439     13442     13443
     13441     13439     13442     13444     13441     13439     13442     13445
     13442     13445     13448     13449     13442     13445     13448     13450
     13442     13445     13448     13451     13443     13442     13445     13446
     13443     13442     13445     13447     13443     13442     13445     13448
     13444     13442     13445     13446     13444     13442     13445     13447
     13444     13442     13445     13448     13445     13448     13451     13452
     13445     13448     13451     13453     13445     13448     13451     13454
     13446     13445     13448     13449     13446     13445     13448     13450
     13446     13445     13448     13451     13447     13445     13448     13449
     13447     13445     13448     13450     13447     13445     13448     13451
     13448     13451     13454     13455     13448     13451     13454     13456
     13448     13451     13454     13457     13449     13448     13451     13452
     13449     13448     13451     13453     13449     13448     13451     13454
     13450     13448     13451     13452     13450     13448     13451     13453
     13450     13448     13451     13454     13451     13454     13457     13458
     13451     13454     13457     13459     13452     13451     13454     13455
     13452     13451     13454     13456     13452     13451     13454     13457
     13453     13451     13454     13455     13453     13451     13454     13456
     13453     13451     13454     13457     13454     13457     13459     13460
     13454     13457     13459     13461     13455     13454     13457     13458
     13455     13454     13457     13459     13456     13454     13457     13458
     13456     13454     13457     13459     13457     13459     13461     13462
     13457     13459     13461     13463     13457     13459     13461     13464
     13458     13457     13459     13460     13458     13457     13459     13461
     13459     13461     13464     13465     13459     13461     13464     13466
     13459     13461     13464     13467     13460     13459     13461     13462
     13460     13459     13461     13463     13460     13459     13461     13464
     13461     13464     13467     13468     13461     13464     13467     13469
     13461     13464     13467     13470     13462     13461     13464     13465
     13462     13461     13464     13466     13462     13461     13464     13467
     13463     13461     13464     13465     13463     13461     13464     13466
     13463     13461     13464     13467     13464     13467     13470     13471
     13464     13467     13470     13472     13464     13467     13470     13473
     13465     13464     13467     13468     13465     13464     13467     13469
     13465     13464     13467     13470     13466     13464     13467     13468
     13466     13464     13467     13469     13466     13464     13467     13470
     13467     13470     13473     13474     13467     13470     13473     13475
     13467     13470     13473     13476     13468     13467     13470     13471
     13468     13467     13470     13472     13468     13467     13470     13473
     13469     13467     13470     13471     13469     13467     13470     13472
     13469     13467     13470     13473     13470     13473     13476     13477
     13470     13473     13476     13478     13470     13473     13476     13479
     13471     13470     13473     13474     13471     13470     13473     13475
     13471     13470     13473     13476     13472     13470     13473     13474
     13472     13470     13473     13475     13472     13470     13473     13476
     13473     13476     13479     13480     13473     13476     13479     13481
     13473     13476     13479     13482     13474     13473     13476     13477
     13474     13473     13476     13478     13474     13473     13476     13479
     13475     13473     13476     13477     13475     13473     13476     13478
     13475     13473     13476     13479     13476     13479     13482     13483
     13476     13479     13482     13484     13476     13479     13482     13485
     13477     13476     13479     13480     13477     13476     13479     13481
     13477     13476     13479     13482     13478     13476     13479     13480
     13478     13476     13479     13481     13478     13476     13479     13482
     13480     13479     13482     13483     13480     13479     13482     13484
     13480     13479     13482     13485     13481     13479     13482     13483
     13481     13479     13482     13484     13481     13479     13482     13485
     13486     13489     13492     13493     13486     13489     13492     13494
     13486     13489     13492     13495     13487     13486     13489     13490
     13487     13486     13489     13491     13487     13486     13489     13492
     13488     13486     13489     13490     13488     13486     13489     13491
     13488     13486     13489     13492     13489     13492     13495     13496
     13489     13492     13495     13497     13489     13492     13495     13498
     13490     13489     13492     13493     13490     13489     13492     13494
     13490     13489     13492     13495     13491     13489     13492     13493
     13491     13489     13492     13494     13491     13489     13492     13495
     13492     13495     13498     13499     13492     13495     13498     13500
     13492     13495     13498     13501     13493     13492     13495     13496
     13493     13492     13495     13497     13493     13492     13495     13498
     13494     13492     13495     13496     13494     13492     13495     13497
     13494     13492     13495     13498     13495     13498     13501     13502
     13495     13498     13501     13503     13495     13498     13501     13504
     13496     13495     13498     13499     13496     13495     13498     13500
     13496     13495     13498     13501     13497     13495     13498     13499
     13497     13495     13498     13500     13497     13495     13498     13501
     13498     13501     13504     13505     13498     13501     13504     13506
     13498     13501     13504     13507     13499     13498     13501     13502
     13499     13498     13501     13503     13499     13498     13501     13504
     13500     13498     13501     13502     13500     13498     13501     13503
     13500     13498     13501     13504     13501     13504     13507     13508
     13501     13504     13507     13509     13501     13504     13507     13510
     13502     13501     13504     13505     13502     13501     13504     13506
     13502     13501     13504     13507     13503     13501     13504     13505
     13503     13501     13504     13506     13503     13501     13504     13507
     13504     13507     13510     13511     13504     13507     13510     13512
     13504     13507     13510     13513     13505     13504     13507     13508
     13505     13504     13507     13509     13505     13504     13507     13510
     13506     13504     13507     13508     13506     13504     13507     13509
     13506     13504     13507     13510     13507     13510     13513     13514
     13507     13510     13513     13515     13507     13510     13513     13516
     13508     13507     13510     13511     13508     13507     13510     13512
     13508     13507     13510     13513     13509     13507     13510     13511
     13509     13507     13510     13512     13509     13507     13510     13513
     13510     13513     13516     13517     13510     13513     13516     13518
     13510     13513     13516     13519     13511     13510     13513     13514
     13511     13510     13513     13515     13511     13510     13513     13516
     13512     13510     13513     13514     13512     13510     13513     13515
     13512     13510     13513     13516     13513     13516     13519     13520
     13513     13516     13519     13521     13513     13516     13519     13522
     13514     13513     13516     13517     13514     13513     13516     13518
     13514     13513     13516     13519     13515     13513     13516     13517
     13515     13513     13516     13518     13515     13513     13516     13519
     13516     13519     13522     13523     13516     13519     13522     13524
     13516     13519     13522     13525     13517     13516     13519     13520
     13517     13516     13519     13521     13517     13516     13519     13522
     13518     13516     13519     13520     13518     13516     13519     13521
     13518     13516     13519     13522     13519     13522     13525     13526
     13519     13522     13525     13527     13519     13522     13525     13528
     13520     13519     13522     13523     13520     13519     13522     13524
     13520     13519     13522     13525     13521     13519     13522     13523
     13521     13519     13522     13524     13521     13519     13522     13525
     13523     13522     13525     13526     13523     13522     13525     13527
     13523     13522     13525     13528     13524     13522     13525     13526
     13524     13522     13525     13527     13524     13522     13525     13528
     13529     13533     13535     13536     13529     13533     13535     13537
     13529     13533     13538     13539     13529     13533     13538     13540
     13529     13533     13538     13544     13530     13529     13533     13534
     13530     13529     13533     13535     13530     13529     13533     13538
     13531     13529     13533     13534     13531     13529     13533     13535
     13531     13529     13533     13538     13532     13529     13533     13534
     13532     13529     13533     13535     13532     13529     13533     13538
     13533     13538     13544     13541     13534     13533     13535     13536
     13534     13533     13535     13537     13534     13533     13538     13539
     13534     13533     13538     13540     13534     13533     13538     13544
     13535     13533     13538     13539     13535     13533     13538     13540
     13535     13533     13538     13544     13536     13535     13533     13538
     13537     13535     13533     13538     13538     13544     13541     13542
     13538     13544     13541     13543     13538     13544     13541     13545
     13539     13538     13544     13541     13540     13538     13544     13541
     13541     13545     13546     13547     13541     13545     13546     13548
     13541     13545     13546     13549     13542     13541     13545     13546
     13543     13541     13545     13546     13544     13541     13545     13546
     13545     13546     13549     13550     13545     13546     13549     13551
     13545     13546     13549     13557     13546     13549     13551     13552
     13546     13549     13557     13558     13546     13549     13557     13559
     13546     13549     13557     13560     13547     13546     13549     13550
     13547     13546     13549     13551     13547     13546     13549     13557
     13548     13546     13549     13550     13548     13546     13549     13551
     13548     13546     13549     13557     13549     13551     13552     13553
     13549     13551     13552     13554     13549     13557     13560     13561
     13550     13549     13551     13552     13550     13549     13557     13558
     13550     13549     13557     13559     13550     13549     13557     13560
     13551     13549     13557     13558     13551     13549     13557     13559
     13551     13549     13557     13560     13551     13552     13554     13555
     13551     13552     13554     13556     13551     13552     13554     13566
     13552     13551     13549     13557     13552     13554     13566     13567
     13552     13554     13566     13568     13552     13554     13566     13569
     13553     13552     13554     13555     13553     13552     13554     13556
     13553     13552     13554     13566     13554     13566     13569     13570
     13554     13566     13569     13571     13554     13566     13569     13572
     13555     13554     13566     13567     13555     13554     13566     13568
     13555     13554     13566     13569     13556     13554     13566     13567
     13556     13554     13566     13568     13556     13554     13566     13569
     13557     13560     13561     13562     13557     13560     13561     13563
     13558     13557     13560     13561     13559     13557     13560     13561
     13560     13561     13563     13564     13560     13561     13563     13565
     13560     13561     13563     13613     13561     13563     13613     13614
     13561     13563     13613     13615     13561     13563     13613     13616
     13562     13561     13563     13564     13562     13561     13563     13565
     13562     13561     13563     13613     13563     13613     13616     13617
     13563     13613     13616     13618     13563     13613     13616     13619
     13564     13563     13613     13614     13564     13563     13613     13615
     13564     13563     13613     13616     13565     13563     13613     13614
     13565     13563     13613     13615     13565     13563     13613     13616
     13566     13569     13572     13573     13566     13569     13572     13574
     13566     13569     13572     13575     13567     13566     13569     13570
     13567     13566     13569     13571     13567     13566     13569     13572
     13568     13566     13569     13570     13568     13566     13569     13571
     13568     13566     13569     13572     13569     13572     13575     13576
     13569     13572     13575     13577     13569     13572     13575     13578
     13570     13569     13572     13573     13570     13569     13572     13574
     13570     13569     13572     13575     13571     13569     13572     13573
     13571     13569     13572     13574     13571     13569     13572     13575
     13572     13575     13578     13579     13572     13575     13578     13580
     13572     13575     13578     13581     13573     13572     13575     13576
     13573     13572     13575     13577     13573     13572     13575     13578
     13574     13572     13575     13576     13574     13572     13575     13577
     13574     13572     13575     13578     13575     13578     13581     13582
     13575     13578     13581     13583     13575     13578     13581     13584
     13576     13575     13578     13579     13576     13575     13578     13580
     13576     13575     13578     13581     13577     13575     13578     13579
     13577     13575     13578     13580     13577     13575     13578     13581
     13578     13581     13584     13585     13578     13581     13584     13586
     13579     13578     13581     13582     13579     13578     13581     13583
     13579     13578     13581     13584     13580     13578     13581     13582
     13580     13578     13581     13583     13580     13578     13581     13584
     13581     13584     13586     13587     13581     13584     13586     13588
     13582     13581     13584     13585     13582     13581     13584     13586
     13583     13581     13584     13585     13583     13581     13584     13586
     13584     13586     13588     13589     13584     13586     13588     13590
     13584     13586     13588     13591     13585     13584     13586     13587
     13585     13584     13586     13588     13586     13588     13591     13592
     13586     13588     13591     13593     13586     13588     13591     13594
     13587     13586     13588     13589     13587     13586     13588     13590
     13587     13586     13588     13591     13588     13591     13594     13595
     13588     13591     13594     13596     13588     13591     13594     13597
     13589     13588     13591     13592     13589     13588     13591     13593
     13589     13588     13591     13594     13590     13588     13591     13592
     13590     13588     13591     13593     13590     13588     13591     13594
     13591     13594     13597     13598     13591     13594     13597     13599
     13591     13594     13597     13600     13592     13591     13594     13595
     13592     13591     13594     13596     13592     13591     13594     13597
     13593     13591     13594     13595     13593     13591     13594     13596
     13593     13591     13594     13597     13594     13597     13600     13601
     13594     13597     13600     13602     13594     13597     13600     13603
     13595     13594     13597     13598     13595     13594     13597     13599
     13595     13594     13597     13600     13596     13594     13597     13598
     13596     13594     13597     13599     13596     13594     13597     13600
     13597     13600     13603     13604     13597     13600     13603     13605
     13597     13600     13603     13606     13598     13597     13600     13601
     13598     13597     13600     13602     13598     13597     13600     13603
     13599     13597     13600     13601     13599     13597     13600     13602
     13599     13597     13600     13603     13600     13603     13606     13607
     13600     13603     13606     13608     13600     13603     13606     13609
     13601     13600     13603     13604     13601     13600     13603     13605
     13601     13600     13603     13606     13602     13600     13603     13604
     13602     13600     13603     13605     13602     13600     13603     13606
     13603     13606     13609     13610     13603     13606     13609     13611
     13603     13606     13609     13612     13604     13603     13606     13607
     13604     13603     13606     13608     13604     13603     13606     13609
     13605     13603     13606     13607     13605     13603     13606     13608
     13605     13603     13606     13609     13607     13606     13609     13610
     13607     13606     13609     13611     13607     13606     13609     13612
     13608     13606     13609     13610     13608     13606     13609     13611
     13608     13606     13609     13612     13613     13616     13619     13620
     13613     13616     13619     13621     13613     13616     13619     13622
     13614     13613     13616     13617     13614     13613     13616     13618
     13614     13613     13616     13619     13615     13613     13616     13617
     13615     13613     13616     13618     13615     13613     13616     13619
     13616     13619     13622     13623     13616     13619     13622     13624
     13616     13619     13622     13625     13617     13616     13619     13620
     13617     13616     13619     13621     13617     13616     13619     13622
     13618     13616     13619     13620     13618     13616     13619     13621
     13618     13616     13619     13622     13619     13622     13625     13626
     13619     13622     13625     13627     13619     13622     13625     13628
     13620     13619     13622     13623     13620     13619     13622     13624
     13620     13619     13622     13625     13621     13619     13622     13623
     13621     13619     13622     13624     13621     13619     13622     13625
     13622     13625     13628     13629     13622     13625     13628     13630
     13622     13625     13628     13631     13623     13622     13625     13626
     13623     13622     13625     13627     13623     13622     13625     13628
     13624     13622     13625     13626     13624     13622     13625     13627
     13624     13622     13625     13628     13625     13628     13631     13632
     13625     13628     13631     13633     13625     13628     13631     13634
     13626     13625     13628     13629     13626     13625     13628     13630
     13626     13625     13628     13631     13627     13625     13628     13629
     13627     13625     13628     13630     13627     13625     13628     13631
     13628     13631     13634     13635     13628     13631     13634     13636
     13628     13631     13634     13637     13629     13628     13631     13632
     13629     13628     13631     13633     13629     13628     13631     13634
     13630     13628     13631     13632     13630     13628     13631     13633
     13630     13628     13631     13634     13631     13634     13637     13638
     13631     13634     13637     13639     13631     13634     13637     13640
     13632     13631     13634     13635     13632     13631     13634     13636
     13632     13631     13634     13637     13633     13631     13634     13635
     13633     13631     13634     13636     13633     13631     13634     13637
     13634     13637     13640     13641     13634     13637     13640     13642
     13634     13637     13640     13643     13635     13634     13637     13638
     13635     13634     13637     13639     13635     13634     13637     13640
     13636     13634     13637     13638     13636     13634     13637     13639
     13636     13634     13637     13640     13637     13640     13643     13644
     13637     13640     13643     13645     13637     13640     13643     13646
     13638     13637     13640     13641     13638     13637     13640     13642
     13638     13637     13640     13643     13639     13637     13640     13641
     13639     13637     13640     13642     13639     13637     13640     13643
     13640     13643     13646     13647     13640     13643     13646     13648
     13640     13643     13646     13649     13641     13640     13643     13644
     13641     13640     13643     13645     13641     13640     13643     13646
     13642     13640     13643     13644     13642     13640     13643     13645
     13642     13640     13643     13646     13643     13646     13649     13650
     13643     13646     13649     13651     13643     13646     13649     13652
     13644     13643     13646     13647     13644     13643     13646     13648
     13644     13643     13646     13649     13645     13643     13646     13647
     13645     13643     13646     13648     13645     13643     13646     13649
     13646     13649     13652     13653     13646     13649     13652     13654
     13646     13649     13652     13655     13647     13646     13649     13650
     13647     13646     13649     13651     13647     13646     13649     13652
     13648     13646     13649     13650     13648     13646     13649     13651
     13648     13646     13649     13652     13650     13649     13652     13653
     13650     13649     13652     13654     13650     13649     13652     13655
     13651     13649     13652     13653     13651     13649     13652     13654
     13651     13649     13652     13655     13656     13657     13672     13673
     13656     13657     13672     13674     13656     13657     13672     13678
     13657     13656     13660     13661     13657     13656     13660     13662
     13657     13656     13660     13663     13657     13656     13664     13665
     13657     13656     13664     13666     13657     13656     13664     13667
     13657     13656     13668     13669     13657     13656     13668     13670
     13657     13656     13668     13671     13657     13672     13678     13675
     13658     13657     13656     13660     13658     13657     13656     13664
     13658     13657     13656     13668     13658     13657     13672     13673
     13658     13657     13672     13674     13658     13657     13672     13678
     13659     13657     13656     13660     13659     13657     13656     13664
     13659     13657     13656     13668     13659     13657     13672     13673
     13659     13657     13672     13674     13659     13657     13672     13678
     13660     13656     13657     13672     13660     13656     13664     13665
     13660     13656     13664     13666     13660     13656     13664     13667
     13660     13656     13668     13669     13660     13656     13668     13670
     13660     13656     13668     13671     13661     13660     13656     13664
     13661     13660     13656     13668     13662     13660     13656     13664
     13662     13660     13656     13668     13663     13660     13656     13664
     13663     13660     13656     13668     13664     13656     13657     13672
     13664     13656     13668     13669     13664     13656     13668     13670
     13664     13656     13668     13671     13665     13664     13656     13668
     13666     13664     13656     13668     13667     13664     13656     13668
     13668     13656     13657     13672     13672     13678     13675     13676
     13672     13678     13675     13677     13672     13678     13675     13679
     13673     13672     13678     13675     13674     13672     13678     13675
     13675     13679     13680     13681     13675     13679     13680     13682
     13675     13679     13680     13683     13676     13675     13679     13680
     13677     13675     13679     13680     13678     13675     13679     13680
     13679     13680     13683     13684     13679     13680     13683     13685
     13679     13680     13683     13691     13680     13683     13685     13686
     13680     13683     13691     13692     13680     13683     13691     13693
     13680     13683     13691     13694     13681     13680     13683     13684
     13681     13680     13683     13685     13681     13680     13683     13691
     13682     13680     13683     13684     13682     13680     13683     13685
     13682     13680     13683     13691     13683     13685     13686     13687
     13683     13685     13686     13688     13683     13691     13694     13695
     13684     13683     13685     13686     13684     13683     13691     13692
     13684     13683     13691     13693     13684     13683     13691     13694
     13685     13683     13691     13692     13685     13683     13691     13693
     13685     13683     13691     13694     13685     13686     13688     13689
     13685     13686     13688     13690     13685     13686     13688     13700
     13686     13685     13683     13691     13686     13688     13700     13701
     13686     13688     13700     13702     13686     13688     13700     13703
     13687     13686     13688     13689     13687     13686     13688     13690
     13687     13686     13688     13700     13688     13700     13703     13704
     13688     13700     13703     13705     13688     13700     13703     13706
     13689     13688     13700     13701     13689     13688     13700     13702
     13689     13688     13700     13703     13690     13688     13700     13701
     13690     13688     13700     13702     13690     13688     13700     13703
     13691     13694     13695     13696     13691     13694     13695     13697
     13692     13691     13694     13695     13693     13691     13694     13695
     13694     13695     13697     13698     13694     13695     13697     13699
     13694     13695     13697     13747     13695     13697     13747     13748
     13695     13697     13747     13749     13695     13697     13747     13750
     13696     13695     13697     13698     13696     13695     13697     13699
     13696     13695     13697     13747     13697     13747     13750     13751
     13697     13747     13750     13752     13697     13747     13750     13753
     13698     13697     13747     13748     13698     13697     13747     13749
     13698     13697     13747     13750     13699     13697     13747     13748
     13699     13697     13747     13749     13699     13697     13747     13750
     13700     13703     13706     13707     13700     13703     13706     13708
     13700     13703     13706     13709     13701     13700     13703     13704
     13701     13700     13703     13705     13701     13700     13703     13706
     13702     13700     13703     13704     13702     13700     13703     13705
     13702     13700     13703     13706     13703     13706     13709     13710
     13703     13706     13709     13711     13703     13706     13709     13712
     13704     13703     13706     13707     13704     13703     13706     13708
     13704     13703     13706     13709     13705     13703     13706     13707
     13705     13703     13706     13708     13705     13703     13706     13709
     13706     13709     13712     13713     13706     13709     13712     13714
     13706     13709     13712     13715     13707     13706     13709     13710
     13707     13706     13709     13711     13707     13706     13709     13712
     13708     13706     13709     13710     13708     13706     13709     13711
     13708     13706     13709     13712     13709     13712     13715     13716
     13709     13712     13715     13717     13709     13712     13715     13718
     13710     13709     13712     13713     13710     13709     13712     13714
     13710     13709     13712     13715     13711     13709     13712     13713
     13711     13709     13712     13714     13711     13709     13712     13715
     13712     13715     13718     13719     13712     13715     13718     13720
     13713     13712     13715     13716     13713     13712     13715     13717
     13713     13712     13715     13718     13714     13712     13715     13716
     13714     13712     13715     13717     13714     13712     13715     13718
     13715     13718     13720     13721     13715     13718     13720     13722
     13716     13715     13718     13719     13716     13715     13718     13720
     13717     13715     13718     13719     13717     13715     13718     13720
     13718     13720     13722     13723     13718     13720     13722     13724
     13718     13720     13722     13725     13719     13718     13720     13721
     13719     13718     13720     13722     13720     13722     13725     13726
     13720     13722     13725     13727     13720     13722     13725     13728
     13721     13720     13722     13723     13721     13720     13722     13724
     13721     13720     13722     13725     13722     13725     13728     13729
     13722     13725     13728     13730     13722     13725     13728     13731
     13723     13722     13725     13726     13723     13722     13725     13727
     13723     13722     13725     13728     13724     13722     13725     13726
     13724     13722     13725     13727     13724     13722     13725     13728
     13725     13728     13731     13732     13725     13728     13731     13733
     13725     13728     13731     13734     13726     13725     13728     13729
     13726     13725     13728     13730     13726     13725     13728     13731
     13727     13725     13728     13729     13727     13725     13728     13730
     13727     13725     13728     13731     13728     13731     13734     13735
     13728     13731     13734     13736     13728     13731     13734     13737
     13729     13728     13731     13732     13729     13728     13731     13733
     13729     13728     13731     13734     13730     13728     13731     13732
     13730     13728     13731     13733     13730     13728     13731     13734
     13731     13734     13737     13738     13731     13734     13737     13739
     13731     13734     13737     13740     13732     13731     13734     13735
     13732     13731     13734     13736     13732     13731     13734     13737
     13733     13731     13734     13735     13733     13731     13734     13736
     13733     13731     13734     13737     13734     13737     13740     13741
     13734     13737     13740     13742     13734     13737     13740     13743
     13735     13734     13737     13738     13735     13734     13737     13739
     13735     13734     13737     13740     13736     13734     13737     13738
     13736     13734     13737     13739     13736     13734     13737     13740
     13737     13740     13743     13744     13737     13740     13743     13745
     13737     13740     13743     13746     13738     13737     13740     13741
     13738     13737     13740     13742     13738     13737     13740     13743
     13739     13737     13740     13741     13739     13737     13740     13742
     13739     13737     13740     13743     13741     13740     13743     13744
     13741     13740     13743     13745     13741     13740     13743     13746
     13742     13740     13743     13744     13742     13740     13743     13745
     13742     13740     13743     13746     13747     13750     13753     13754
     13747     13750     13753     13755     13747     13750     13753     13756
     13748     13747     13750     13751     13748     13747     13750     13752
     13748     13747     13750     13753     13749     13747     13750     13751
     13749     13747     13750     13752     13749     13747     13750     13753
     13750     13753     13756     13757     13750     13753     13756     13758
     13750     13753     13756     13759     13751     13750     13753     13754
     13751     13750     13753     13755     13751     13750     13753     13756
     13752     13750     13753     13754     13752     13750     13753     13755
     13752     13750     13753     13756     13753     13756     13759     13760
     13753     13756     13759     13761     13753     13756     13759     13762
     13754     13753     13756     13757     13754     13753     13756     13758
     13754     13753     13756     13759     13755     13753     13756     13757
     13755     13753     13756     13758     13755     13753     13756     13759
     13756     13759     13762     13763     13756     13759     13762     13764
     13756     13759     13762     13765     13757     13756     13759     13760
     13757     13756     13759     13761     13757     13756     13759     13762
     13758     13756     13759     13760     13758     13756     13759     13761
     13758     13756     13759     13762     13759     13762     13765     13766
     13759     13762     13765     13767     13759     13762     13765     13768
     13760     13759     13762     13763     13760     13759     13762     13764
     13760     13759     13762     13765     13761     13759     13762     13763
     13761     13759     13762     13764     13761     13759     13762     13765
     13762     13765     13768     13769     13762     13765     13768     13770
     13762     13765     13768     13771     13763     13762     13765     13766
     13763     13762     13765     13767     13763     13762     13765     13768
     13764     13762     13765     13766     13764     13762     13765     13767
     13764     13762     13765     13768     13765     13768     13771     13772
     13765     13768     13771     13773     13765     13768     13771     13774
     13766     13765     13768     13769     13766     13765     13768     13770
     13766     13765     13768     13771     13767     13765     13768     13769
     13767     13765     13768     13770     13767     13765     13768     13771
     13768     13771     13774     13775     13768     13771     13774     13776
     13768     13771     13774     13777     13769     13768     13771     13772
     13769     13768     13771     13773     13769     13768     13771     13774
     13770     13768     13771     13772     13770     13768     13771     13773
     13770     13768     13771     13774     13771     13774     13777     13778
     13771     13774     13777     13779     13771     13774     13777     13780
     13772     13771     13774     13775     13772     13771     13774     13776
     13772     13771     13774     13777     13773     13771     13774     13775
     13773     13771     13774     13776     13773     13771     13774     13777
     13774     13777     13780     13781     13774     13777     13780     13782
     13774     13777     13780     13783     13775     13774     13777     13778
     13775     13774     13777     13779     13775     13774     13777     13780
     13776     13774     13777     13778     13776     13774     13777     13779
     13776     13774     13777     13780     13777     13780     13783     13784
     13777     13780     13783     13785     13777     13780     13783     13786
     13778     13777     13780     13781     13778     13777     13780     13782
     13778     13777     13780     13783     13779     13777     13780     13781
     13779     13777     13780     13782     13779     13777     13780     13783
     13780     13783     13786     13787     13780     13783     13786     13788
     13780     13783     13786     13789     13781     13780     13783     13784
     13781     13780     13783     13785     13781     13780     13783     13786
     13782     13780     13783     13784     13782     13780     13783     13785
     13782     13780     13783     13786     13784     13783     13786     13787
     13784     13783     13786     13788     13784     13783     13786     13789
     13785     13783     13786     13787     13785     13783     13786     13788
     13785     13783     13786     13789     13790     13794     13796     13797
     13790     13794     13796     13798     13790     13794     13799     13800
     13790     13794     13799     13801     13790     13794     13799     13805
     13791     13790     13794     13795     13791     13790     13794     13796
     13791     13790     13794     13799     13792     13790     13794     13795
     13792     13790     13794     13796     13792     13790     13794     13799
     13793     13790     13794     13795     13793     13790     13794     13796
     13793     13790     13794     13799     13794     13799     13805     13802
     13795     13794     13796     13797     13795     13794     13796     13798
     13795     13794     13799     13800     13795     13794     13799     13801
     13795     13794     13799     13805     13796     13794     13799     13800
     13796     13794     13799     13801     13796     13794     13799     13805
     13797     13796     13794     13799     13798     13796     13794     13799
     13799     13805     13802     13803     13799     13805     13802     13804
     13799     13805     13802     13806     13800     13799     13805     13802
     13801     13799     13805     13802     13802     13806     13807     13808
     13802     13806     13807     13809     13802     13806     13807     13810
     13803     13802     13806     13807     13804     13802     13806     13807
     13805     13802     13806     13807     13806     13807     13810     13811
     13806     13807     13810     13812     13806     13807     13810     13818
     13807     13810     13812     13813     13807     13810     13818     13819
     13807     13810     13818     13820     13807     13810     13818     13821
     13808     13807     13810     13811     13808     13807     13810     13812
     13808     13807     13810     13818     13809     13807     13810     13811
     13809     13807     13810     13812     13809     13807     13810     13818
     13810     13812     13813     13814     13810     13812     13813     13815
     13810     13818     13821     13822     13811     13810     13812     13813
     13811     13810     13818     13819     13811     13810     13818     13820
     13811     13810     13818     13821     13812     13810     13818     13819
     13812     13810     13818     13820     13812     13810     13818     13821
     13812     13813     13815     13816     13812     13813     13815     13817
     13812     13813     13815     13827     13813     13812     13810     13818
     13813     13815     13827     13828     13813     13815     13827     13829
     13813     13815     13827     13830     13814     13813     13815     13816
     13814     13813     13815     13817     13814     13813     13815     13827
     13815     13827     13830     13831     13815     13827     13830     13832
     13815     13827     13830     13833     13816     13815     13827     13828
     13816     13815     13827     13829     13816     13815     13827     13830
     13817     13815     13827     13828     13817     13815     13827     13829
     13817     13815     13827     13830     13818     13821     13822     13823
     13818     13821     13822     13824     13819     13818     13821     13822
     13820     13818     13821     13822     13821     13822     13824     13825
     13821     13822     13824     13826     13821     13822     13824     13874
     13822     13824     13874     13875     13822     13824     13874     13876
     13822     13824     13874     13877     13823     13822     13824     13825
     13823     13822     13824     13826     13823     13822     13824     13874
     13824     13874     13877     13878     13824     13874     13877     13879
     13824     13874     13877     13880     13825     13824     13874     13875
     13825     13824     13874     13876     13825     13824     13874     13877
     13826     13824     13874     13875     13826     13824     13874     13876
     13826     13824     13874     13877     13827     13830     13833     13834
     13827     13830     13833     13835     13827     13830     13833     13836
     13828     13827     13830     13831     13828     13827     13830     13832
     13828     13827     13830     13833     13829     13827     13830     13831
     13829     13827     13830     13832     13829     13827     13830     13833
     13830     13833     13836     13837     13830     13833     13836     13838
     13830     13833     13836     13839     13831     13830     13833     13834
     13831     13830     13833     13835     13831     13830     13833     13836
     13832     13830     13833     13834     13832     13830     13833     13835
     13832     13830     13833     13836     13833     13836     13839     13840
     13833     13836     13839     13841     13833     13836     13839     13842
     13834     13833     13836     13837     13834     13833     13836     13838
     13834     13833     13836     13839     13835     13833     13836     13837
     13835     13833     13836     13838     13835     13833     13836     13839
     13836     13839     13842     13843     13836     13839     13842     13844
     13836     13839     13842     13845     13837     13836     13839     13840
     13837     13836     13839     13841     13837     13836     13839     13842
     13838     13836     13839     13840     13838     13836     13839     13841
     13838     13836     13839     13842     13839     13842     13845     13846
     13839     13842     13845     13847     13840     13839     13842     13843
     13840     13839     13842     13844     13840     13839     13842     13845
     13841     13839     13842     13843     13841     13839     13842     13844
     13841     13839     13842     13845     13842     13845     13847     13848
     13842     13845     13847     13849     13843     13842     13845     13846
     13843     13842     13845     13847     13844     13842     13845     13846
     13844     13842     13845     13847     13845     13847     13849     13850
     13845     13847     13849     13851     13845     13847     13849     13852
     13846     13845     13847     13848     13846     13845     13847     13849
     13847     13849     13852     13853     13847     13849     13852     13854
     13847     13849     13852     13855     13848     13847     13849     13850
     13848     13847     13849     13851     13848     13847     13849     13852
     13849     13852     13855     13856     13849     13852     13855     13857
     13849     13852     13855     13858     13850     13849     13852     13853
     13850     13849     13852     13854     13850     13849     13852     13855
     13851     13849     13852     13853     13851     13849     13852     13854
     13851     13849     13852     13855     13852     13855     13858     13859
     13852     13855     13858     13860     13852     13855     13858     13861
     13853     13852     13855     13856     13853     13852     13855     13857
     13853     13852     13855     13858     13854     13852     13855     13856
     13854     13852     13855     13857     13854     13852     13855     13858
     13855     13858     13861     13862     13855     13858     13861     13863
     13855     13858     13861     13864     13856     13855     13858     13859
     13856     13855     13858     13860     13856     13855     13858     13861
     13857     13855     13858     13859     13857     13855     13858     13860
     13857     13855     13858     13861     13858     13861     13864     13865
     13858     13861     13864     13866     13858     13861     13864     13867
     13859     13858     13861     13862     13859     13858     13861     13863
     13859     13858     13861     13864     13860     13858     13861     13862
     13860     13858     13861     13863     13860     13858     13861     13864
     13861     13864     13867     13868     13861     13864     13867     13869
     13861     13864     13867     13870     13862     13861     13864     13865
     13862     13861     13864     13866     13862     13861     13864     13867
     13863     13861     13864     13865     13863     13861     13864     13866
     13863     13861     13864     13867     13864     13867     13870     13871
     13864     13867     13870     13872     13864     13867     13870     13873
     13865     13864     13867     13868     13865     13864     13867     13869
     13865     13864     13867     13870     13866     13864     13867     13868
     13866     13864     13867     13869     13866     13864     13867     13870
     13868     13867     13870     13871     13868     13867     13870     13872
     13868     13867     13870     13873     13869     13867     13870     13871
     13869     13867     13870     13872     13869     13867     13870     13873
     13874     13877     13880     13881     13874     13877     13880     13882
     13874     13877     13880     13883     13875     13874     13877     13878
     13875     13874     13877     13879     13875     13874     13877     13880
     13876     13874     13877     13878     13876     13874     13877     13879
     13876     13874     13877     13880     13877     13880     13883     13884
     13877     13880     13883     13885     13877     13880     13883     13886
     13878     13877     13880     13881     13878     13877     13880     13882
     13878     13877     13880     13883     13879     13877     13880     13881
     13879     13877     13880     13882     13879     13877     13880     13883
     13880     13883     13886     13887     13880     13883     13886     13888
     13880     13883     13886     13889     13881     13880     13883     13884
     13881     13880     13883     13885     13881     13880     13883     13886
     13882     13880     13883     13884     13882     13880     13883     13885
     13882     13880     13883     13886     13883     13886     13889     13890
     13883     13886     13889     13891     13883     13886     13889     13892
     13884     13883     13886     13887     13884     13883     13886     13888
     13884     13883     13886     13889     13885     13883     13886     13887
     13885     13883     13886     13888     13885     13883     13886     13889
     13886     13889     13892     13893     13886     13889     13892     13894
     13886     13889     13892     13895     13887     13886     13889     13890
     13887     13886     13889     13891     13887     13886     13889     13892
     13888     13886     13889     13890     13888     13886     13889     13891
     13888     13886     13889     13892     13889     13892     13895     13896
     13889     13892     13895     13897     13889     13892     13895     13898
     13890     13889     13892     13893     13890     13889     13892     13894
     13890     13889     13892     13895     13891     13889     13892     13893
     13891     13889     13892     13894     13891     13889     13892     13895
     13892     13895     13898     13899     13892     13895     13898     13900
     13892     13895     13898     13901     13893     13892     13895     13896
     13893     13892     13895     13897     13893     13892     13895     13898
     13894     13892     13895     13896     13894     13892     13895     13897
     13894     13892     13895     13898     13895     13898     13901     13902
     13895     13898     13901     13903     13895     13898     13901     13904
     13896     13895     13898     13899     13896     13895     13898     13900
     13896     13895     13898     13901     13897     13895     13898     13899
     13897     13895     13898     13900     13897     13895     13898     13901
     13898     13901     13904     13905     13898     13901     13904     13906
     13898     13901     13904     13907     13899     13898     13901     13902
     13899     13898     13901     13903     13899     13898     13901     13904
     13900     13898     13901     13902     13900     13898     13901     13903
     13900     13898     13901     13904     13901     13904     13907     13908
     13901     13904     13907     13909     13901     13904     13907     13910
     13902     13901     13904     13905     13902     13901     13904     13906
     13902     13901     13904     13907     13903     13901     13904     13905
     13903     13901     13904     13906     13903     13901     13904     13907
     13904     13907     13910     13911     13904     13907     13910     13912
     13904     13907     13910     13913     13905     13904     13907     13908
     13905     13904     13907     13909     13905     13904     13907     13910
     13906     13904     13907     13908     13906     13904     13907     13909
     13906     13904     13907     13910     13907     13910     13913     13914
     13907     13910     13913     13915     13907     13910     13913     13916
     13908     13907     13910     13911     13908     13907     13910     13912
     13908     13907     13910     13913     13909     13907     13910     13911
     13909     13907     13910     13912     13909     13907     13910     13913
     13911     13910     13913     13914     13911     13910     13913     13915
     13911     13910     13913     13916     13912     13910     13913     13914
     13912     13910     13913     13915     13912     13910     13913     13916
     13917     13918     13933     13934     13917     13918     13933     13935
     13917     13918     13933     13939     13918     13917     13921     13922
     13918     13917     13921     13923     13918     13917     13921     13924
     13918     13917     13925     13926     13918     13917     13925     13927
     13918     13917     13925     13928     13918     13917     13929     13930
     13918     13917     13929     13931     13918     13917     13929     13932
     13918     13933     13939     13936     13919     13918     13917     13921
     13919     13918     13917     13925     13919     13918     13917     13929
     13919     13918     13933     13934     13919     13918     13933     13935
     13919     13918     13933     13939     13920     13918     13917     13921
     13920     13918     13917     13925     13920     13918     13917     13929
     13920     13918     13933     13934     13920     13918     13933     13935
     13920     13918     13933     13939     13921     13917     13918     13933
     13921     13917     13925     13926     13921     13917     13925     13927
     13921     13917     13925     13928     13921     13917     13929     13930
     13921     13917     13929     13931     13921     13917     13929     13932
     13922     13921     13917     13925     13922     13921     13917     13929
     13923     13921     13917     13925     13923     13921     13917     13929
     13924     13921     13917     13925     13924     13921     13917     13929
     13925     13917     13918     13933     13925     13917     13929     13930
     13925     13917     13929     13931     13925     13917     13929     13932
     13926     13925     13917     13929     13927     13925     13917     13929
     13928     13925     13917     13929     13929     13917     13918     13933
     13933     13939     13936     13937     13933     13939     13936     13938
     13933     13939     13936     13940     13934     13933     13939     13936
     13935     13933     13939     13936     13936     13940     13941     13942
     13936     13940     13941     13943     13936     13940     13941     13944
     13937     13936     13940     13941     13938     13936     13940     13941
     13939     13936     13940     13941     13940     13941     13944     13945
     13940     13941     13944     13946     13940     13941     13944     13952
     13941     13944     13946     13947     13941     13944     13952     13953
     13941     13944     13952     13954     13941     13944     13952     13955
     13942     13941     13944     13945     13942     13941     13944     13946
     13942     13941     13944     13952     13943     13941     13944     13945
     13943     13941     13944     13946     13943     13941     13944     13952
     13944     13946     13947     13948     13944     13946     13947     13949
     13944     13952     13955     13956     13945     13944     13946     13947
     13945     13944     13952     13953     13945     13944     13952     13954
     13945     13944     13952     13955     13946     13944     13952     13953
     13946     13944     13952     13954     13946     13944     13952     13955
     13946     13947     13949     13950     13946     13947     13949     13951
     13946     13947     13949     13961     13947     13946     13944     13952
     13947     13949     13961     13962     13947     13949     13961     13963
     13947     13949     13961     13964     13948     13947     13949     13950
     13948     13947     13949     13951     13948     13947     13949     13961
     13949     13961     13964     13965     13949     13961     13964     13966
     13949     13961     13964     13967     13950     13949     13961     13962
     13950     13949     13961     13963     13950     13949     13961     13964
     13951     13949     13961     13962     13951     13949     13961     13963
     13951     13949     13961     13964     13952     13955     13956     13957
     13952     13955     13956     13958     13953     13952     13955     13956
     13954     13952     13955     13956     13955     13956     13958     13959
     13955     13956     13958     13960     13955     13956     13958     14008
     13956     13958     14008     14009     13956     13958     14008     14010
     13956     13958     14008     14011     13957     13956     13958     13959
     13957     13956     13958     13960     13957     13956     13958     14008
     13958     14008     14011     14012     13958     14008     14011     14013
     13958     14008     14011     14014     13959     13958     14008     14009
     13959     13958     14008     14010     13959     13958     14008     14011
     13960     13958     14008     14009     13960     13958     14008     14010
     13960     13958     14008     14011     13961     13964     13967     13968
     13961     13964     13967     13969     13961     13964     13967     13970
     13962     13961     13964     13965     13962     13961     13964     13966
     13962     13961     13964     13967     13963     13961     13964     13965
     13963     13961     13964     13966     13963     13961     13964     13967
     13964     13967     13970     13971     13964     13967     13970     13972
     13964     13967     13970     13973     13965     13964     13967     13968
     13965     13964     13967     13969     13965     13964     13967     13970
     13966     13964     13967     13968     13966     13964     13967     13969
     13966     13964     13967     13970     13967     13970     13973     13974
     13967     13970     13973     13975     13967     13970     13973     13976
     13968     13967     13970     13971     13968     13967     13970     13972
     13968     13967     13970     13973     13969     13967     13970     13971
     13969     13967     13970     13972     13969     13967     13970     13973
     13970     13973     13976     13977     13970     13973     13976     13978
     13970     13973     13976     13979     13971     13970     13973     13974
     13971     13970     13973     13975     13971     13970     13973     13976
     13972     13970     13973     13974     13972     13970     13973     13975
     13972     13970     13973     13976     13973     13976     13979     13980
     13973     13976     13979     13981     13974     13973     13976     13977
     13974     13973     13976     13978     13974     13973     13976     13979
     13975     13973     13976     13977     13975     13973     13976     13978
     13975     13973     13976     13979     13976     13979     13981     13982
     13976     13979     13981     13983     13977     13976     13979     13980
     13977     13976     13979     13981     13978     13976     13979     13980
     13978     13976     13979     13981     13979     13981     13983     13984
     13979     13981     13983     13985     13979     13981     13983     13986
     13980     13979     13981     13982     13980     13979     13981     13983
     13981     13983     13986     13987     13981     13983     13986     13988
     13981     13983     13986     13989     13982     13981     13983     13984
     13982     13981     13983     13985     13982     13981     13983     13986
     13983     13986     13989     13990     13983     13986     13989     13991
     13983     13986     13989     13992     13984     13983     13986     13987
     13984     13983     13986     13988     13984     13983     13986     13989
     13985     13983     13986     13987     13985     13983     13986     13988
     13985     13983     13986     13989     13986     13989     13992     13993
     13986     13989     13992     13994     13986     13989     13992     13995
     13987     13986     13989     13990     13987     13986     13989     13991
     13987     13986     13989     13992     13988     13986     13989     13990
     13988     13986     13989     13991     13988     13986     13989     13992
     13989     13992     13995     13996     13989     13992     13995     13997
     13989     13992     13995     13998     13990     13989     13992     13993
     13990     13989     13992     13994     13990     13989     13992     13995
     13991     13989     13992     13993     13991     13989     13992     13994
     13991     13989     13992     13995     13992     13995     13998     13999
     13992     13995     13998     14000     13992     13995     13998     14001
     13993     13992     13995     13996     13993     13992     13995     13997
     13993     13992     13995     13998     13994     13992     13995     13996
     13994     13992     13995     13997     13994     13992     13995     13998
     13995     13998     14001     14002     13995     13998     14001     14003
     13995     13998     14001     14004     13996     13995     13998     13999
     13996     13995     13998     14000     13996     13995     13998     14001
     13997     13995     13998     13999     13997     13995     13998     14000
     13997     13995     13998     14001     13998     14001     14004     14005
     13998     14001     14004     14006     13998     14001     14004     14007
     13999     13998     14001     14002     13999     13998     14001     14003
     13999     13998     14001     14004     14000     13998     14001     14002
     14000     13998     14001     14003     14000     13998     14001     14004
     14002     14001     14004     14005     14002     14001     14004     14006
     14002     14001     14004     14007     14003     14001     14004     14005
     14003     14001     14004     14006     14003     14001     14004     14007
     14008     14011     14014     14015     14008     14011     14014     14016
     14008     14011     14014     14017     14009     14008     14011     14012
     14009     14008     14011     14013     14009     14008     14011     14014
     14010     14008     14011     14012     14010     14008     14011     14013
     14010     14008     14011     14014     14011     14014     14017     14018
     14011     14014     14017     14019     14011     14014     14017     14020
     14012     14011     14014     14015     14012     14011     14014     14016
     14012     14011     14014     14017     14013     14011     14014     14015
     14013     14011     14014     14016     14013     14011     14014     14017
     14014     14017     14020     14021     14014     14017     14020     14022
     14014     14017     14020     14023     14015     14014     14017     14018
     14015     14014     14017     14019     14015     14014     14017     14020
     14016     14014     14017     14018     14016     14014     14017     14019
     14016     14014     14017     14020     14017     14020     14023     14024
     14017     14020     14023     14025     14017     14020     14023     14026
     14018     14017     14020     14021     14018     14017     14020     14022
     14018     14017     14020     14023     14019     14017     14020     14021
     14019     14017     14020     14022     14019     14017     14020     14023
     14020     14023     14026     14027     14020     14023     14026     14028
     14020     14023     14026     14029     14021     14020     14023     14024
     14021     14020     14023     14025     14021     14020     14023     14026
     14022     14020     14023     14024     14022     14020     14023     14025
     14022     14020     14023     14026     14023     14026     14029     14030
     14023     14026     14029     14031     14023     14026     14029     14032
     14024     14023     14026     14027     14024     14023     14026     14028
     14024     14023     14026     14029     14025     14023     14026     14027
     14025     14023     14026     14028     14025     14023     14026     14029
     14026     14029     14032     14033     14026     14029     14032     14034
     14026     14029     14032     14035     14027     14026     14029     14030
     14027     14026     14029     14031     14027     14026     14029     14032
     14028     14026     14029     14030     14028     14026     14029     14031
     14028     14026     14029     14032     14029     14032     14035     14036
     14029     14032     14035     14037     14029     14032     14035     14038
     14030     14029     14032     14033     14030     14029     14032     14034
     14030     14029     14032     14035     14031     14029     14032     14033
     14031     14029     14032     14034     14031     14029     14032     14035
     14032     14035     14038     14039     14032     14035     14038     14040
     14032     14035     14038     14041     14033     14032     14035     14036
     14033     14032     14035     14037     14033     14032     14035     14038
     14034     14032     14035     14036     14034     14032     14035     14037
     14034     14032     14035     14038     14035     14038     14041     14042
     14035     14038     14041     14043     14035     14038     14041     14044
     14036     14035     14038     14039     14036     14035     14038     14040
     14036     14035     14038     14041     14037     14035     14038     14039
     14037     14035     14038     14040     14037     14035     14038     14041
     14038     14041     14044     14045     14038     14041     14044     14046
     14038     14041     14044     14047     14039     14038     14041     14042
     14039     14038     14041     14043     14039     14038     14041     14044
     14040     14038     14041     14042     14040     14038     14041     14043
     14040     14038     14041     14044     14041     14044     14047     14048
     14041     14044     14047     14049     14041     14044     14047     14050
     14042     14041     14044     14045     14042     14041     14044     14046
     14042     14041     14044     14047     14043     14041     14044     14045
     14043     14041     14044     14046     14043     14041     14044     14047
     14045     14044     14047     14048     14045     14044     14047     14049
     14045     14044     14047     14050     14046     14044     14047     14048
     14046     14044     14047     14049     14046     14044     14047     14050
     14051     14052     14067     14068     14051     14052     14067     14069
     14051     14052     14067     14073     14052     14051     14055     14056
     14052     14051     14055     14057     14052     14051     14055     14058
     14052     14051     14059     14060     14052     14051     14059     14061
     14052     14051     14059     14062     14052     14051     14063     14064
     14052     14051     14063     14065     14052     14051     14063     14066
     14052     14067     14073     14070     14053     14052     14051     14055
     14053     14052     14051     14059     14053     14052     14051     14063
     14053     14052     14067     14068     14053     14052     14067     14069
     14053     14052     14067     14073     14054     14052     14051     14055
     14054     14052     14051     14059     14054     14052     14051     14063
     14054     14052     14067     14068     14054     14052     14067     14069
     14054     14052     14067     14073     14055     14051     14052     14067
     14055     14051     14059     14060     14055     14051     14059     14061
     14055     14051     14059     14062     14055     14051     14063     14064
     14055     14051     14063     14065     14055     14051     14063     14066
     14056     14055     14051     14059     14056     14055     14051     14063
     14057     14055     14051     14059     14057     14055     14051     14063
     14058     14055     14051     14059     14058     14055     14051     14063
     14059     14051     14052     14067     14059     14051     14063     14064
     14059     14051     14063     14065     14059     14051     14063     14066
     14060     14059     14051     14063     14061     14059     14051     14063
     14062     14059     14051     14063     14063     14051     14052     14067
     14067     14073     14070     14071     14067     14073     14070     14072
     14067     14073     14070     14074     14068     14067     14073     14070
     14069     14067     14073     14070     14070     14074     14075     14076
     14070     14074     14075     14077     14070     14074     14075     14078
     14071     14070     14074     14075     14072     14070     14074     14075
     14073     14070     14074     14075     14074     14075     14078     14079
     14074     14075     14078     14080     14074     14075     14078     14086
     14075     14078     14080     14081     14075     14078     14086     14087
     14075     14078     14086     14088     14075     14078     14086     14089
     14076     14075     14078     14079     14076     14075     14078     14080
     14076     14075     14078     14086     14077     14075     14078     14079
     14077     14075     14078     14080     14077     14075     14078     14086
     14078     14080     14081     14082     14078     14080     14081     14083
     14078     14086     14089     14090     14079     14078     14080     14081
     14079     14078     14086     14087     14079     14078     14086     14088
     14079     14078     14086     14089     14080     14078     14086     14087
     14080     14078     14086     14088     14080     14078     14086     14089
     14080     14081     14083     14084     14080     14081     14083     14085
     14080     14081     14083     14095     14081     14080     14078     14086
     14081     14083     14095     14096     14081     14083     14095     14097
     14081     14083     14095     14098     14082     14081     14083     14084
     14082     14081     14083     14085     14082     14081     14083     14095
     14083     14095     14098     14099     14083     14095     14098     14100
     14083     14095     14098     14101     14084     14083     14095     14096
     14084     14083     14095     14097     14084     14083     14095     14098
     14085     14083     14095     14096     14085     14083     14095     14097
     14085     14083     14095     14098     14086     14089     14090     14091
     14086     14089     14090     14092     14087     14086     14089     14090
     14088     14086     14089     14090     14089     14090     14092     14093
     14089     14090     14092     14094     14089     14090     14092     14142
     14090     14092     14142     14143     14090     14092     14142     14144
     14090     14092     14142     14145     14091     14090     14092     14093
     14091     14090     14092     14094     14091     14090     14092     14142
     14092     14142     14145     14146     14092     14142     14145     14147
     14092     14142     14145     14148     14093     14092     14142     14143
     14093     14092     14142     14144     14093     14092     14142     14145
     14094     14092     14142     14143     14094     14092     14142     14144
     14094     14092     14142     14145     14095     14098     14101     14102
     14095     14098     14101     14103     14095     14098     14101     14104
     14096     14095     14098     14099     14096     14095     14098     14100
     14096     14095     14098     14101     14097     14095     14098     14099
     14097     14095     14098     14100     14097     14095     14098     14101
     14098     14101     14104     14105     14098     14101     14104     14106
     14098     14101     14104     14107     14099     14098     14101     14102
     14099     14098     14101     14103     14099     14098     14101     14104
     14100     14098     14101     14102     14100     14098     14101     14103
     14100     14098     14101     14104     14101     14104     14107     14108
     14101     14104     14107     14109     14101     14104     14107     14110
     14102     14101     14104     14105     14102     14101     14104     14106
     14102     14101     14104     14107     14103     14101     14104     14105
     14103     14101     14104     14106     14103     14101     14104     14107
     14104     14107     14110     14111     14104     14107     14110     14112
     14104     14107     14110     14113     14105     14104     14107     14108
     14105     14104     14107     14109     14105     14104     14107     14110
     14106     14104     14107     14108     14106     14104     14107     14109
     14106     14104     14107     14110     14107     14110     14113     14114
     14107     14110     14113     14115     14108     14107     14110     14111
     14108     14107     14110     14112     14108     14107     14110     14113
     14109     14107     14110     14111     14109     14107     14110     14112
     14109     14107     14110     14113     14110     14113     14115     14116
     14110     14113     14115     14117     14111     14110     14113     14114
     14111     14110     14113     14115     14112     14110     14113     14114
     14112     14110     14113     14115     14113     14115     14117     14118
     14113     14115     14117     14119     14113     14115     14117     14120
     14114     14113     14115     14116     14114     14113     14115     14117
     14115     14117     14120     14121     14115     14117     14120     14122
     14115     14117     14120     14123     14116     14115     14117     14118
     14116     14115     14117     14119     14116     14115     14117     14120
     14117     14120     14123     14124     14117     14120     14123     14125
     14117     14120     14123     14126     14118     14117     14120     14121
     14118     14117     14120     14122     14118     14117     14120     14123
     14119     14117     14120     14121     14119     14117     14120     14122
     14119     14117     14120     14123     14120     14123     14126     14127
     14120     14123     14126     14128     14120     14123     14126     14129
     14121     14120     14123     14124     14121     14120     14123     14125
     14121     14120     14123     14126     14122     14120     14123     14124
     14122     14120     14123     14125     14122     14120     14123     14126
     14123     14126     14129     14130     14123     14126     14129     14131
     14123     14126     14129     14132     14124     14123     14126     14127
     14124     14123     14126     14128     14124     14123     14126     14129
     14125     14123     14126     14127     14125     14123     14126     14128
     14125     14123     14126     14129     14126     14129     14132     14133
     14126     14129     14132     14134     14126     14129     14132     14135
     14127     14126     14129     14130     14127     14126     14129     14131
     14127     14126     14129     14132     14128     14126     14129     14130
     14128     14126     14129     14131     14128     14126     14129     14132
     14129     14132     14135     14136     14129     14132     14135     14137
     14129     14132     14135     14138     14130     14129     14132     14133
     14130     14129     14132     14134     14130     14129     14132     14135
     14131     14129     14132     14133     14131     14129     14132     14134
     14131     14129     14132     14135     14132     14135     14138     14139
     14132     14135     14138     14140     14132     14135     14138     14141
     14133     14132     14135     14136     14133     14132     14135     14137
     14133     14132     14135     14138     14134     14132     14135     14136
     14134     14132     14135     14137     14134     14132     14135     14138
     14136     14135     14138     14139     14136     14135     14138     14140
     14136     14135     14138     14141     14137     14135     14138     14139
     14137     14135     14138     14140     14137     14135     14138     14141
     14142     14145     14148     14149     14142     14145     14148     14150
     14142     14145     14148     14151     14143     14142     14145     14146
     14143     14142     14145     14147     14143     14142     14145     14148
     14144     14142     14145     14146     14144     14142     14145     14147
     14144     14142     14145     14148     14145     14148     14151     14152
     14145     14148     14151     14153     14145     14148     14151     14154
     14146     14145     14148     14149     14146     14145     14148     14150
     14146     14145     14148     14151     14147     14145     14148     14149
     14147     14145     14148     14150     14147     14145     14148     14151
     14148     14151     14154     14155     14148     14151     14154     14156
     14148     14151     14154     14157     14149     14148     14151     14152
     14149     14148     14151     14153     14149     14148     14151     14154
     14150     14148     14151     14152     14150     14148     14151     14153
     14150     14148     14151     14154     14151     14154     14157     14158
     14151     14154     14157     14159     14151     14154     14157     14160
     14152     14151     14154     14155     14152     14151     14154     14156
     14152     14151     14154     14157     14153     14151     14154     14155
     14153     14151     14154     14156     14153     14151     14154     14157
     14154     14157     14160     14161     14154     14157     14160     14162
     14154     14157     14160     14163     14155     14154     14157     14158
     14155     14154     14157     14159     14155     14154     14157     14160
     14156     14154     14157     14158     14156     14154     14157     14159
     14156     14154     14157     14160     14157     14160     14163     14164
     14157     14160     14163     14165     14157     14160     14163     14166
     14158     14157     14160     14161     14158     14157     14160     14162
     14158     14157     14160     14163     14159     14157     14160     14161
     14159     14157     14160     14162     14159     14157     14160     14163
     14160     14163     14166     14167     14160     14163     14166     14168
     14160     14163     14166     14169     14161     14160     14163     14164
     14161     14160     14163     14165     14161     14160     14163     14166
     14162     14160     14163     14164     14162     14160     14163     14165
     14162     14160     14163     14166     14163     14166     14169     14170
     14163     14166     14169     14171     14163     14166     14169     14172
     14164     14163     14166     14167     14164     14163     14166     14168
     14164     14163     14166     14169     14165     14163     14166     14167
     14165     14163     14166     14168     14165     14163     14166     14169
     14166     14169     14172     14173     14166     14169     14172     14174
     14166     14169     14172     14175     14167     14166     14169     14170
     14167     14166     14169     14171     14167     14166     14169     14172
     14168     14166     14169     14170     14168     14166     14169     14171
     14168     14166     14169     14172     14169     14172     14175     14176
     14169     14172     14175     14177     14169     14172     14175     14178
     14170     14169     14172     14173     14170     14169     14172     14174
     14170     14169     14172     14175     14171     14169     14172     14173
     14171     14169     14172     14174     14171     14169     14172     14175
     14172     14175     14178     14179     14172     14175     14178     14180
     14172     14175     14178     14181     14173     14172     14175     14176
     14173     14172     14175     14177     14173     14172     14175     14178
     14174     14172     14175     14176     14174     14172     14175     14177
     14174     14172     14175     14178     14175     14178     14181     14182
     14175     14178     14181     14183     14175     14178     14181     14184
     14176     14175     14178     14179     14176     14175     14178     14180
     14176     14175     14178     14181     14177     14175     14178     14179
     14177     14175     14178     14180     14177     14175     14178     14181
     14179     14178     14181     14182     14179     14178     14181     14183
     14179     14178     14181     14184     14180     14178     14181     14182
     14180     14178     14181     14183     14180     14178     14181     14184
     14185     14189     14191     14192     14185     14189     14191     14193
     14185     14189     14194     14195     14185     14189     14194     14196
     14185     14189     14194     14200     14186     14185     14189     14190
     14186     14185     14189     14191     14186     14185     14189     14194
     14187     14185     14189     14190     14187     14185     14189     14191
     14187     14185     14189     14194     14188     14185     14189     14190
     14188     14185     14189     14191     14188     14185     14189     14194
     14189     14194     14200     14197     14190     14189     14191     14192
     14190     14189     14191     14193     14190     14189     14194     14195
     14190     14189     14194     14196     14190     14189     14194     14200
     14191     14189     14194     14195     14191     14189     14194     14196
     14191     14189     14194     14200     14192     14191     14189     14194
     14193     14191     14189     14194     14194     14200     14197     14198
     14194     14200     14197     14199     14194     14200     14197     14201
     14195     14194     14200     14197     14196     14194     14200     14197
     14197     14201     14202     14203     14197     14201     14202     14204
     14197     14201     14202     14205     14198     14197     14201     14202
     14199     14197     14201     14202     14200     14197     14201     14202
     14201     14202     14205     14206     14201     14202     14205     14207
     14201     14202     14205     14213     14202     14205     14207     14208
     14202     14205     14213     14214     14202     14205     14213     14215
     14202     14205     14213     14216     14203     14202     14205     14206
     14203     14202     14205     14207     14203     14202     14205     14213
     14204     14202     14205     14206     14204     14202     14205     14207
     14204     14202     14205     14213     14205     14207     14208     14209
     14205     14207     14208     14210     14205     14213     14216     14217
     14206     14205     14207     14208     14206     14205     14213     14214
     14206     14205     14213     14215     14206     14205     14213     14216
     14207     14205     14213     14214     14207     14205     14213     14215
     14207     14205     14213     14216     14207     14208     14210     14211
     14207     14208     14210     14212     14207     14208     14210     14222
     14208     14207     14205     14213     14208     14210     14222     14223
     14208     14210     14222     14224     14208     14210     14222     14225
     14209     14208     14210     14211     14209     14208     14210     14212
     14209     14208     14210     14222     14210     14222     14225     14226
     14210     14222     14225     14227     14210     14222     14225     14228
     14211     14210     14222     14223     14211     14210     14222     14224
     14211     14210     14222     14225     14212     14210     14222     14223
     14212     14210     14222     14224     14212     14210     14222     14225
     14213     14216     14217     14218     14213     14216     14217     14219
     14214     14213     14216     14217     14215     14213     14216     14217
     14216     14217     14219     14220     14216     14217     14219     14221
     14216     14217     14219     14269     14217     14219     14269     14270
     14217     14219     14269     14271     14217     14219     14269     14272
     14218     14217     14219     14220     14218     14217     14219     14221
     14218     14217     14219     14269     14219     14269     14272     14273
     14219     14269     14272     14274     14219     14269     14272     14275
     14220     14219     14269     14270     14220     14219     14269     14271
     14220     14219     14269     14272     14221     14219     14269     14270
     14221     14219     14269     14271     14221     14219     14269     14272
     14222     14225     14228     14229     14222     14225     14228     14230
     14222     14225     14228     14231     14223     14222     14225     14226
     14223     14222     14225     14227     14223     14222     14225     14228
     14224     14222     14225     14226     14224     14222     14225     14227
     14224     14222     14225     14228     14225     14228     14231     14232
     14225     14228     14231     14233     14225     14228     14231     14234
     14226     14225     14228     14229     14226     14225     14228     14230
     14226     14225     14228     14231     14227     14225     14228     14229
     14227     14225     14228     14230     14227     14225     14228     14231
     14228     14231     14234     14235     14228     14231     14234     14236
     14228     14231     14234     14237     14229     14228     14231     14232
     14229     14228     14231     14233     14229     14228     14231     14234
     14230     14228     14231     14232     14230     14228     14231     14233
     14230     14228     14231     14234     14231     14234     14237     14238
     14231     14234     14237     14239     14231     14234     14237     14240
     14232     14231     14234     14235     14232     14231     14234     14236
     14232     14231     14234     14237     14233     14231     14234     14235
     14233     14231     14234     14236     14233     14231     14234     14237
     14234     14237     14240     14241     14234     14237     14240     14242
     14235     14234     14237     14238     14235     14234     14237     14239
     14235     14234     14237     14240     14236     14234     14237     14238
     14236     14234     14237     14239     14236     14234     14237     14240
     14237     14240     14242     14243     14237     14240     14242     14244
     14238     14237     14240     14241     14238     14237     14240     14242
     14239     14237     14240     14241     14239     14237     14240     14242
     14240     14242     14244     14245     14240     14242     14244     14246
     14240     14242     14244     14247     14241     14240     14242     14243
     14241     14240     14242     14244     14242     14244     14247     14248
     14242     14244     14247     14249     14242     14244     14247     14250
     14243     14242     14244     14245     14243     14242     14244     14246
     14243     14242     14244     14247     14244     14247     14250     14251
     14244     14247     14250     14252     14244     14247     14250     14253
     14245     14244     14247     14248     14245     14244     14247     14249
     14245     14244     14247     14250     14246     14244     14247     14248
     14246     14244     14247     14249     14246     14244     14247     14250
     14247     14250     14253     14254     14247     14250     14253     14255
     14247     14250     14253     14256     14248     14247     14250     14251
     14248     14247     14250     14252     14248     14247     14250     14253
     14249     14247     14250     14251     14249     14247     14250     14252
     14249     14247     14250     14253     14250     14253     14256     14257
     14250     14253     14256     14258     14250     14253     14256     14259
     14251     14250     14253     14254     14251     14250     14253     14255
     14251     14250     14253     14256     14252     14250     14253     14254
     14252     14250     14253     14255     14252     14250     14253     14256
     14253     14256     14259     14260     14253     14256     14259     14261
     14253     14256     14259     14262     14254     14253     14256     14257
     14254     14253     14256     14258     14254     14253     14256     14259
     14255     14253     14256     14257     14255     14253     14256     14258
     14255     14253     14256     14259     14256     14259     14262     14263
     14256     14259     14262     14264     14256     14259     14262     14265
     14257     14256     14259     14260     14257     14256     14259     14261
     14257     14256     14259     14262     14258     14256     14259     14260
     14258     14256     14259     14261     14258     14256     14259     14262
     14259     14262     14265     14266     14259     14262     14265     14267
     14259     14262     14265     14268     14260     14259     14262     14263
     14260     14259     14262     14264     14260     14259     14262     14265
     14261     14259     14262     14263     14261     14259     14262     14264
     14261     14259     14262     14265     14263     14262     14265     14266
     14263     14262     14265     14267     14263     14262     14265     14268
     14264     14262     14265     14266     14264     14262     14265     14267
     14264     14262     14265     14268     14269     14272     14275     14276
     14269     14272     14275     14277     14269     14272     14275     14278
     14270     14269     14272     14273     14270     14269     14272     14274
     14270     14269     14272     14275     14271     14269     14272     14273
     14271     14269     14272     14274     14271     14269     14272     14275
     14272     14275     14278     14279     14272     14275     14278     14280
     14272     14275     14278     14281     14273     14272     14275     14276
     14273     14272     14275     14277     14273     14272     14275     14278
     14274     14272     14275     14276     14274     14272     14275     14277
     14274     14272     14275     14278     14275     14278     14281     14282
     14275     14278     14281     14283     14275     14278     14281     14284
     14276     14275     14278     14279     14276     14275     14278     14280
     14276     14275     14278     14281     14277     14275     14278     14279
     14277     14275     14278     14280     14277     14275     14278     14281
     14278     14281     14284     14285     14278     14281     14284     14286
     14278     14281     14284     14287     14279     14278     14281     14282
     14279     14278     14281     14283     14279     14278     14281     14284
     14280     14278     14281     14282     14280     14278     14281     14283
     14280     14278     14281     14284     14281     14284     14287     14288
     14281     14284     14287     14289     14281     14284     14287     14290
     14282     14281     14284     14285     14282     14281     14284     14286
     14282     14281     14284     14287     14283     14281     14284     14285
     14283     14281     14284     14286     14283     14281     14284     14287
     14284     14287     14290     14291     14284     14287     14290     14292
     14284     14287     14290     14293     14285     14284     14287     14288
     14285     14284     14287     14289     14285     14284     14287     14290
     14286     14284     14287     14288     14286     14284     14287     14289
     14286     14284     14287     14290     14287     14290     14293     14294
     14287     14290     14293     14295     14287     14290     14293     14296
     14288     14287     14290     14291     14288     14287     14290     14292
     14288     14287     14290     14293     14289     14287     14290     14291
     14289     14287     14290     14292     14289     14287     14290     14293
     14290     14293     14296     14297     14290     14293     14296     14298
     14290     14293     14296     14299     14291     14290     14293     14294
     14291     14290     14293     14295     14291     14290     14293     14296
     14292     14290     14293     14294     14292     14290     14293     14295
     14292     14290     14293     14296     14293     14296     14299     14300
     14293     14296     14299     14301     14293     14296     14299     14302
     14294     14293     14296     14297     14294     14293     14296     14298
     14294     14293     14296     14299     14295     14293     14296     14297
     14295     14293     14296     14298     14295     14293     14296     14299
     14296     14299     14302     14303     14296     14299     14302     14304
     14296     14299     14302     14305     14297     14296     14299     14300
     14297     14296     14299     14301     14297     14296     14299     14302
     14298     14296     14299     14300     14298     14296     14299     14301
     14298     14296     14299     14302     14299     14302     14305     14306
     14299     14302     14305     14307     14299     14302     14305     14308
     14300     14299     14302     14303     14300     14299     14302     14304
     14300     14299     14302     14305     14301     14299     14302     14303
     14301     14299     14302     14304     14301     14299     14302     14305
     14302     14305     14308     14309     14302     14305     14308     14310
     14302     14305     14308     14311     14303     14302     14305     14306
     14303     14302     14305     14307     14303     14302     14305     14308
     14304     14302     14305     14306     14304     14302     14305     14307
     14304     14302     14305     14308     14306     14305     14308     14309
     14306     14305     14308     14310     14306     14305     14308     14311
     14307     14305     14308     14309     14307     14305     14308     14310
     14307     14305     14308     14311     14312     14313     14328     14329
     14312     14313     14328     14330     14312     14313     14328     14334
     14313     14312     14316     14317     14313     14312     14316     14318
     14313     14312     14316     14319     14313     14312     14320     14321
     14313     14312     14320     14322     14313     14312     14320     14323
     14313     14312     14324     14325     14313     14312     14324     14326
     14313     14312     14324     14327     14313     14328     14334     14331
     14314     14313     14312     14316     14314     14313     14312     14320
     14314     14313     14312     14324     14314     14313     14328     14329
     14314     14313     14328     14330     14314     14313     14328     14334
     14315     14313     14312     14316     14315     14313     14312     14320
     14315     14313     14312     14324     14315     14313     14328     14329
     14315     14313     14328     14330     14315     14313     14328     14334
     14316     14312     14313     14328     14316     14312     14320     14321
     14316     14312     14320     14322     14316     14312     14320     14323
     14316     14312     14324     14325     14316     14312     14324     14326
     14316     14312     14324     14327     14317     14316     14312     14320
     14317     14316     14312     14324     14318     14316     14312     14320
     14318     14316     14312     14324     14319     14316     14312     14320
     14319     14316     14312     14324     14320     14312     14313     14328
     14320     14312     14324     14325     14320     14312     14324     14326
     14320     14312     14324     14327     14321     14320     14312     14324
     14322     14320     14312     14324     14323     14320     14312     14324
     14324     14312     14313     14328     14328     14334     14331     14332
     14328     14334     14331     14333     14328     14334     14331     14335
     14329     14328     14334     14331     14330     14328     14334     14331
     14331     14335     14336     14337     14331     14335     14336     14338
     14331     14335     14336     14339     14332     14331     14335     14336
     14333     14331     14335     14336     14334     14331     14335     14336
     14335     14336     14339     14340     14335     14336     14339     14341
     14335     14336     14339     14347     14336     14339     14341     14342
     14336     14339     14347     14348     14336     14339     14347     14349
     14336     14339     14347     14350     14337     14336     14339     14340
     14337     14336     14339     14341     14337     14336     14339     14347
     14338     14336     14339     14340     14338     14336     14339     14341
     14338     14336     14339     14347     14339     14341     14342     14343
     14339     14341     14342     14344     14339     14347     14350     14351
     14340     14339     14341     14342     14340     14339     14347     14348
     14340     14339     14347     14349     14340     14339     14347     14350
     14341     14339     14347     14348     14341     14339     14347     14349
     14341     14339     14347     14350     14341     14342     14344     14345
     14341     14342     14344     14346     14341     14342     14344     14356
     14342     14341     14339     14347     14342     14344     14356     14357
     14342     14344     14356     14358     14342     14344     14356     14359
     14343     14342     14344     14345     14343     14342     14344     14346
     14343     14342     14344     14356     14344     14356     14359     14360
     14344     14356     14359     14361     14344     14356     14359     14362
     14345     14344     14356     14357     14345     14344     14356     14358
     14345     14344     14356     14359     14346     14344     14356     14357
     14346     14344     14356     14358     14346     14344     14356     14359
     14347     14350     14351     14352     14347     14350     14351     14353
     14348     14347     14350     14351     14349     14347     14350     14351
     14350     14351     14353     14354     14350     14351     14353     14355
     14350     14351     14353     14403     14351     14353     14403     14404
     14351     14353     14403     14405     14351     14353     14403     14406
     14352     14351     14353     14354     14352     14351     14353     14355
     14352     14351     14353     14403     14353     14403     14406     14407
     14353     14403     14406     14408     14353     14403     14406     14409
     14354     14353     14403     14404     14354     14353     14403     14405
     14354     14353     14403     14406     14355     14353     14403     14404
     14355     14353     14403     14405     14355     14353     14403     14406
     14356     14359     14362     14363     14356     14359     14362     14364
     14356     14359     14362     14365     14357     14356     14359     14360
     14357     14356     14359     14361     14357     14356     14359     14362
     14358     14356     14359     14360     14358     14356     14359     14361
     14358     14356     14359     14362     14359     14362     14365     14366
     14359     14362     14365     14367     14359     14362     14365     14368
     14360     14359     14362     14363     14360     14359     14362     14364
     14360     14359     14362     14365     14361     14359     14362     14363
     14361     14359     14362     14364     14361     14359     14362     14365
     14362     14365     14368     14369     14362     14365     14368     14370
     14362     14365     14368     14371     14363     14362     14365     14366
     14363     14362     14365     14367     14363     14362     14365     14368
     14364     14362     14365     14366     14364     14362     14365     14367
     14364     14362     14365     14368     14365     14368     14371     14372
     14365     14368     14371     14373     14365     14368     14371     14374
     14366     14365     14368     14369     14366     14365     14368     14370
     14366     14365     14368     14371     14367     14365     14368     14369
     14367     14365     14368     14370     14367     14365     14368     14371
     14368     14371     14374     14375     14368     14371     14374     14376
     14369     14368     14371     14372     14369     14368     14371     14373
     14369     14368     14371     14374     14370     14368     14371     14372
     14370     14368     14371     14373     14370     14368     14371     14374
     14371     14374     14376     14377     14371     14374     14376     14378
     14372     14371     14374     14375     14372     14371     14374     14376
     14373     14371     14374     14375     14373     14371     14374     14376
     14374     14376     14378     14379     14374     14376     14378     14380
     14374     14376     14378     14381     14375     14374     14376     14377
     14375     14374     14376     14378     14376     14378     14381     14382
     14376     14378     14381     14383     14376     14378     14381     14384
     14377     14376     14378     14379     14377     14376     14378     14380
     14377     14376     14378     14381     14378     14381     14384     14385
     14378     14381     14384     14386     14378     14381     14384     14387
     14379     14378     14381     14382     14379     14378     14381     14383
     14379     14378     14381     14384     14380     14378     14381     14382
     14380     14378     14381     14383     14380     14378     14381     14384
     14381     14384     14387     14388     14381     14384     14387     14389
     14381     14384     14387     14390     14382     14381     14384     14385
     14382     14381     14384     14386     14382     14381     14384     14387
     14383     14381     14384     14385     14383     14381     14384     14386
     14383     14381     14384     14387     14384     14387     14390     14391
     14384     14387     14390     14392     14384     14387     14390     14393
     14385     14384     14387     14388     14385     14384     14387     14389
     14385     14384     14387     14390     14386     14384     14387     14388
     14386     14384     14387     14389     14386     14384     14387     14390
     14387     14390     14393     14394     14387     14390     14393     14395
     14387     14390     14393     14396     14388     14387     14390     14391
     14388     14387     14390     14392     14388     14387     14390     14393
     14389     14387     14390     14391     14389     14387     14390     14392
     14389     14387     14390     14393     14390     14393     14396     14397
     14390     14393     14396     14398     14390     14393     14396     14399
     14391     14390     14393     14394     14391     14390     14393     14395
     14391     14390     14393     14396     14392     14390     14393     14394
     14392     14390     14393     14395     14392     14390     14393     14396
     14393     14396     14399     14400     14393     14396     14399     14401
     14393     14396     14399     14402     14394     14393     14396     14397
     14394     14393     14396     14398     14394     14393     14396     14399
     14395     14393     14396     14397     14395     14393     14396     14398
     14395     14393     14396     14399     14397     14396     14399     14400
     14397     14396     14399     14401     14397     14396     14399     14402
     14398     14396     14399     14400     14398     14396     14399     14401
     14398     14396     14399     14402     14403     14406     14409     14410
     14403     14406     14409     14411     14403     14406     14409     14412
     14404     14403     14406     14407     14404     14403     14406     14408
     14404     14403     14406     14409     14405     14403     14406     14407
     14405     14403     14406     14408     14405     14403     14406     14409
     14406     14409     14412     14413     14406     14409     14412     14414
     14406     14409     14412     14415     14407     14406     14409     14410
     14407     14406     14409     14411     14407     14406     14409     14412
     14408     14406     14409     14410     14408     14406     14409     14411
     14408     14406     14409     14412     14409     14412     14415     14416
     14409     14412     14415     14417     14409     14412     14415     14418
     14410     14409     14412     14413     14410     14409     14412     14414
     14410     14409     14412     14415     14411     14409     14412     14413
     14411     14409     14412     14414     14411     14409     14412     14415
     14412     14415     14418     14419     14412     14415     14418     14420
     14412     14415     14418     14421     14413     14412     14415     14416
     14413     14412     14415     14417     14413     14412     14415     14418
     14414     14412     14415     14416     14414     14412     14415     14417
     14414     14412     14415     14418     14415     14418     14421     14422
     14415     14418     14421     14423     14415     14418     14421     14424
     14416     14415     14418     14419     14416     14415     14418     14420
     14416     14415     14418     14421     14417     14415     14418     14419
     14417     14415     14418     14420     14417     14415     14418     14421
     14418     14421     14424     14425     14418     14421     14424     14426
     14418     14421     14424     14427     14419     14418     14421     14422
     14419     14418     14421     14423     14419     14418     14421     14424
     14420     14418     14421     14422     14420     14418     14421     14423
     14420     14418     14421     14424     14421     14424     14427     14428
     14421     14424     14427     14429     14421     14424     14427     14430
     14422     14421     14424     14425     14422     14421     14424     14426
     14422     14421     14424     14427     14423     14421     14424     14425
     14423     14421     14424     14426     14423     14421     14424     14427
     14424     14427     14430     14431     14424     14427     14430     14432
     14424     14427     14430     14433     14425     14424     14427     14428
     14425     14424     14427     14429     14425     14424     14427     14430
     14426     14424     14427     14428     14426     14424     14427     14429
     14426     14424     14427     14430     14427     14430     14433     14434
     14427     14430     14433     14435     14427     14430     14433     14436
     14428     14427     14430     14431     14428     14427     14430     14432
     14428     14427     14430     14433     14429     14427     14430     14431
     14429     14427     14430     14432     14429     14427     14430     14433
     14430     14433     14436     14437     14430     14433     14436     14438
     14430     14433     14436     14439     14431     14430     14433     14434
     14431     14430     14433     14435     14431     14430     14433     14436
     14432     14430     14433     14434     14432     14430     14433     14435
     14432     14430     14433     14436     14433     14436     14439     14440
     14433     14436     14439     14441     14433     14436     14439     14442
     14434     14433     14436     14437     14434     14433     14436     14438
     14434     14433     14436     14439     14435     14433     14436     14437
     14435     14433     14436     14438     14435     14433     14436     14439
     14436     14439     14442     14443     14436     14439     14442     14444
     14436     14439     14442     14445     14437     14436     14439     14440
     14437     14436     14439     14441     14437     14436     14439     14442
     14438     14436     14439     14440     14438     14436     14439     14441
     14438     14436     14439     14442     14440     14439     14442     14443
     14440     14439     14442     14444     14440     14439     14442     14445
     14441     14439     14442     14443     14441     14439     14442     14444
     14441     14439     14442     14445     14446     14447     14462     14463
     14446     14447     14462     14464     14446     14447     14462     14468
     14447     14446     14450     14451     14447     14446     14450     14452
     14447     14446     14450     14453     14447     14446     14454     14455
     14447     14446     14454     14456     14447     14446     14454     14457
     14447     14446     14458     14459     14447     14446     14458     14460
     14447     14446     14458     14461     14447     14462     14468     14465
     14448     14447     14446     14450     14448     14447     14446     14454
     14448     14447     14446     14458     14448     14447     14462     14463
     14448     14447     14462     14464     14448     14447     14462     14468
     14449     14447     14446     14450     14449     14447     14446     14454
     14449     14447     14446     14458     14449     14447     14462     14463
     14449     14447     14462     14464     14449     14447     14462     14468
     14450     14446     14447     14462     14450     14446     14454     14455
     14450     14446     14454     14456     14450     14446     14454     14457
     14450     14446     14458     14459     14450     14446     14458     14460
     14450     14446     14458     14461     14451     14450     14446     14454
     14451     14450     14446     14458     14452     14450     14446     14454
     14452     14450     14446     14458     14453     14450     14446     14454
     14453     14450     14446     14458     14454     14446     14447     14462
     14454     14446     14458     14459     14454     14446     14458     14460
     14454     14446     14458     14461     14455     14454     14446     14458
     14456     14454     14446     14458     14457     14454     14446     14458
     14458     14446     14447     14462     14462     14468     14465     14466
     14462     14468     14465     14467     14462     14468     14465     14469
     14463     14462     14468     14465     14464     14462     14468     14465
     14465     14469     14470     14471     14465     14469     14470     14472
     14465     14469     14470     14473     14466     14465     14469     14470
     14467     14465     14469     14470     14468     14465     14469     14470
     14469     14470     14473     14474     14469     14470     14473     14475
     14469     14470     14473     14481     14470     14473     14475     14476
     14470     14473     14481     14482     14470     14473     14481     14483
     14470     14473     14481     14484     14471     14470     14473     14474
     14471     14470     14473     14475     14471     14470     14473     14481
     14472     14470     14473     14474     14472     14470     14473     14475
     14472     14470     14473     14481     14473     14475     14476     14477
     14473     14475     14476     14478     14473     14481     14484     14485
     14474     14473     14475     14476     14474     14473     14481     14482
     14474     14473     14481     14483     14474     14473     14481     14484
     14475     14473     14481     14482     14475     14473     14481     14483
     14475     14473     14481     14484     14475     14476     14478     14479
     14475     14476     14478     14480     14475     14476     14478     14490
     14476     14475     14473     14481     14476     14478     14490     14491
     14476     14478     14490     14492     14476     14478     14490     14493
     14477     14476     14478     14479     14477     14476     14478     14480
     14477     14476     14478     14490     14478     14490     14493     14494
     14478     14490     14493     14495     14478     14490     14493     14496
     14479     14478     14490     14491     14479     14478     14490     14492
     14479     14478     14490     14493     14480     14478     14490     14491
     14480     14478     14490     14492     14480     14478     14490     14493
     14481     14484     14485     14486     14481     14484     14485     14487
     14482     14481     14484     14485     14483     14481     14484     14485
     14484     14485     14487     14488     14484     14485     14487     14489
     14484     14485     14487     14537     14485     14487     14537     14538
     14485     14487     14537     14539     14485     14487     14537     14540
     14486     14485     14487     14488     14486     14485     14487     14489
     14486     14485     14487     14537     14487     14537     14540     14541
     14487     14537     14540     14542     14487     14537     14540     14543
     14488     14487     14537     14538     14488     14487     14537     14539
     14488     14487     14537     14540     14489     14487     14537     14538
     14489     14487     14537     14539     14489     14487     14537     14540
     14490     14493     14496     14497     14490     14493     14496     14498
     14490     14493     14496     14499     14491     14490     14493     14494
     14491     14490     14493     14495     14491     14490     14493     14496
     14492     14490     14493     14494     14492     14490     14493     14495
     14492     14490     14493     14496     14493     14496     14499     14500
     14493     14496     14499     14501     14493     14496     14499     14502
     14494     14493     14496     14497     14494     14493     14496     14498
     14494     14493     14496     14499     14495     14493     14496     14497
     14495     14493     14496     14498     14495     14493     14496     14499
     14496     14499     14502     14503     14496     14499     14502     14504
     14496     14499     14502     14505     14497     14496     14499     14500
     14497     14496     14499     14501     14497     14496     14499     14502
     14498     14496     14499     14500     14498     14496     14499     14501
     14498     14496     14499     14502     14499     14502     14505     14506
     14499     14502     14505     14507     14499     14502     14505     14508
     14500     14499     14502     14503     14500     14499     14502     14504
     14500     14499     14502     14505     14501     14499     14502     14503
     14501     14499     14502     14504     14501     14499     14502     14505
     14502     14505     14508     14509     14502     14505     14508     14510
     14503     14502     14505     14506     14503     14502     14505     14507
     14503     14502     14505     14508     14504     14502     14505     14506
     14504     14502     14505     14507     14504     14502     14505     14508
     14505     14508     14510     14511     14505     14508     14510     14512
     14506     14505     14508     14509     14506     14505     14508     14510
     14507     14505     14508     14509     14507     14505     14508     14510
     14508     14510     14512     14513     14508     14510     14512     14514
     14508     14510     14512     14515     14509     14508     14510     14511
     14509     14508     14510     14512     14510     14512     14515     14516
     14510     14512     14515     14517     14510     14512     14515     14518
     14511     14510     14512     14513     14511     14510     14512     14514
     14511     14510     14512     14515     14512     14515     14518     14519
     14512     14515     14518     14520     14512     14515     14518     14521
     14513     14512     14515     14516     14513     14512     14515     14517
     14513     14512     14515     14518     14514     14512     14515     14516
     14514     14512     14515     14517     14514     14512     14515     14518
     14515     14518     14521     14522     14515     14518     14521     14523
     14515     14518     14521     14524     14516     14515     14518     14519
     14516     14515     14518     14520     14516     14515     14518     14521
     14517     14515     14518     14519     14517     14515     14518     14520
     14517     14515     14518     14521     14518     14521     14524     14525
     14518     14521     14524     14526     14518     14521     14524     14527
     14519     14518     14521     14522     14519     14518     14521     14523
     14519     14518     14521     14524     14520     14518     14521     14522
     14520     14518     14521     14523     14520     14518     14521     14524
     14521     14524     14527     14528     14521     14524     14527     14529
     14521     14524     14527     14530     14522     14521     14524     14525
     14522     14521     14524     14526     14522     14521     14524     14527
     14523     14521     14524     14525     14523     14521     14524     14526
     14523     14521     14524     14527     14524     14527     14530     14531
     14524     14527     14530     14532     14524     14527     14530     14533
     14525     14524     14527     14528     14525     14524     14527     14529
     14525     14524     14527     14530     14526     14524     14527     14528
     14526     14524     14527     14529     14526     14524     14527     14530
     14527     14530     14533     14534     14527     14530     14533     14535
     14527     14530     14533     14536     14528     14527     14530     14531
     14528     14527     14530     14532     14528     14527     14530     14533
     14529     14527     14530     14531     14529     14527     14530     14532
     14529     14527     14530     14533     14531     14530     14533     14534
     14531     14530     14533     14535     14531     14530     14533     14536
     14532     14530     14533     14534     14532     14530     14533     14535
     14532     14530     14533     14536     14537     14540     14543     14544
     14537     14540     14543     14545     14537     14540     14543     14546
     14538     14537     14540     14541     14538     14537     14540     14542
     14538     14537     14540     14543     14539     14537     14540     14541
     14539     14537     14540     14542     14539     14537     14540     14543
     14540     14543     14546     14547     14540     14543     14546     14548
     14540     14543     14546     14549     14541     14540     14543     14544
     14541     14540     14543     14545     14541     14540     14543     14546
     14542     14540     14543     14544     14542     14540     14543     14545
     14542     14540     14543     14546     14543     14546     14549     14550
     14543     14546     14549     14551     14543     14546     14549     14552
     14544     14543     14546     14547     14544     14543     14546     14548
     14544     14543     14546     14549     14545     14543     14546     14547
     14545     14543     14546     14548     14545     14543     14546     14549
     14546     14549     14552     14553     14546     14549     14552     14554
     14546     14549     14552     14555     14547     14546     14549     14550
     14547     14546     14549     14551     14547     14546     14549     14552
     14548     14546     14549     14550     14548     14546     14549     14551
     14548     14546     14549     14552     14549     14552     14555     14556
     14549     14552     14555     14557     14549     14552     14555     14558
     14550     14549     14552     14553     14550     14549     14552     14554
     14550     14549     14552     14555     14551     14549     14552     14553
     14551     14549     14552     14554     14551     14549     14552     14555
     14552     14555     14558     14559     14552     14555     14558     14560
     14552     14555     14558     14561     14553     14552     14555     14556
     14553     14552     14555     14557     14553     14552     14555     14558
     14554     14552     14555     14556     14554     14552     14555     14557
     14554     14552     14555     14558     14555     14558     14561     14562
     14555     14558     14561     14563     14555     14558     14561     14564
     14556     14555     14558     14559     14556     14555     14558     14560
     14556     14555     14558     14561     14557     14555     14558     14559
     14557     14555     14558     14560     14557     14555     14558     14561
     14558     14561     14564     14565     14558     14561     14564     14566
     14558     14561     14564     14567     14559     14558     14561     14562
     14559     14558     14561     14563     14559     14558     14561     14564
     14560     14558     14561     14562     14560     14558     14561     14563
     14560     14558     14561     14564     14561     14564     14567     14568
     14561     14564     14567     14569     14561     14564     14567     14570
     14562     14561     14564     14565     14562     14561     14564     14566
     14562     14561     14564     14567     14563     14561     14564     14565
     14563     14561     14564     14566     14563     14561     14564     14567
     14564     14567     14570     14571     14564     14567     14570     14572
     14564     14567     14570     14573     14565     14564     14567     14568
     14565     14564     14567     14569     14565     14564     14567     14570
     14566     14564     14567     14568     14566     14564     14567     14569
     14566     14564     14567     14570     14567     14570     14573     14574
     14567     14570     14573     14575     14567     14570     14573     14576
     14568     14567     14570     14571     14568     14567     14570     14572
     14568     14567     14570     14573     14569     14567     14570     14571
     14569     14567     14570     14572     14569     14567     14570     14573
     14570     14573     14576     14577     14570     14573     14576     14578
     14570     14573     14576     14579     14571     14570     14573     14574
     14571     14570     14573     14575     14571     14570     14573     14576
     14572     14570     14573     14574     14572     14570     14573     14575
     14572     14570     14573     14576     14574     14573     14576     14577
     14574     14573     14576     14578     14574     14573     14576     14579
     14575     14573     14576     14577     14575     14573     14576     14578
     14575     14573     14576     14579     14580     14584     14586     14587
     14580     14584     14586     14588     14580     14584     14589     14590
     14580     14584     14589     14591     14580     14584     14589     14595
     14581     14580     14584     14585     14581     14580     14584     14586
     14581     14580     14584     14589     14582     14580     14584     14585
     14582     14580     14584     14586     14582     14580     14584     14589
     14583     14580     14584     14585     14583     14580     14584     14586
     14583     14580     14584     14589     14584     14589     14595     14592
     14585     14584     14586     14587     14585     14584     14586     14588
     14585     14584     14589     14590     14585     14584     14589     14591
     14585     14584     14589     14595     14586     14584     14589     14590
     14586     14584     14589     14591     14586     14584     14589     14595
     14587     14586     14584     14589     14588     14586     14584     14589
     14589     14595     14592     14593     14589     14595     14592     14594
     14589     14595     14592     14596     14590     14589     14595     14592
     14591     14589     14595     14592     14592     14596     14597     14598
     14592     14596     14597     14599     14592     14596     14597     14600
     14593     14592     14596     14597     14594     14592     14596     14597
     14595     14592     14596     14597     14596     14597     14600     14601
     14596     14597     14600     14602     14596     14597     14600     14608
     14597     14600     14602     14603     14597     14600     14608     14609
     14597     14600     14608     14610     14597     14600     14608     14611
     14598     14597     14600     14601     14598     14597     14600     14602
     14598     14597     14600     14608     14599     14597     14600     14601
     14599     14597     14600     14602     14599     14597     14600     14608
     14600     14602     14603     14604     14600     14602     14603     14605
     14600     14608     14611     14612     14601     14600     14602     14603
     14601     14600     14608     14609     14601     14600     14608     14610
     14601     14600     14608     14611     14602     14600     14608     14609
     14602     14600     14608     14610     14602     14600     14608     14611
     14602     14603     14605     14606     14602     14603     14605     14607
     14602     14603     14605     14617     14603     14602     14600     14608
     14603     14605     14617     14618     14603     14605     14617     14619
     14603     14605     14617     14620     14604     14603     14605     14606
     14604     14603     14605     14607     14604     14603     14605     14617
     14605     14617     14620     14621     14605     14617     14620     14622
     14605     14617     14620     14623     14606     14605     14617     14618
     14606     14605     14617     14619     14606     14605     14617     14620
     14607     14605     14617     14618     14607     14605     14617     14619
     14607     14605     14617     14620     14608     14611     14612     14613
     14608     14611     14612     14614     14609     14608     14611     14612
     14610     14608     14611     14612     14611     14612     14614     14615
     14611     14612     14614     14616     14611     14612     14614     14664
     14612     14614     14664     14665     14612     14614     14664     14666
     14612     14614     14664     14667     14613     14612     14614     14615
     14613     14612     14614     14616     14613     14612     14614     14664
     14614     14664     14667     14668     14614     14664     14667     14669
     14614     14664     14667     14670     14615     14614     14664     14665
     14615     14614     14664     14666     14615     14614     14664     14667
     14616     14614     14664     14665     14616     14614     14664     14666
     14616     14614     14664     14667     14617     14620     14623     14624
     14617     14620     14623     14625     14617     14620     14623     14626
     14618     14617     14620     14621     14618     14617     14620     14622
     14618     14617     14620     14623     14619     14617     14620     14621
     14619     14617     14620     14622     14619     14617     14620     14623
     14620     14623     14626     14627     14620     14623     14626     14628
     14620     14623     14626     14629     14621     14620     14623     14624
     14621     14620     14623     14625     14621     14620     14623     14626
     14622     14620     14623     14624     14622     14620     14623     14625
     14622     14620     14623     14626     14623     14626     14629     14630
     14623     14626     14629     14631     14623     14626     14629     14632
     14624     14623     14626     14627     14624     14623     14626     14628
     14624     14623     14626     14629     14625     14623     14626     14627
     14625     14623     14626     14628     14625     14623     14626     14629
     14626     14629     14632     14633     14626     14629     14632     14634
     14626     14629     14632     14635     14627     14626     14629     14630
     14627     14626     14629     14631     14627     14626     14629     14632
     14628     14626     14629     14630     14628     14626     14629     14631
     14628     14626     14629     14632     14629     14632     14635     14636
     14629     14632     14635     14637     14630     14629     14632     14633
     14630     14629     14632     14634     14630     14629     14632     14635
     14631     14629     14632     14633     14631     14629     14632     14634
     14631     14629     14632     14635     14632     14635     14637     14638
     14632     14635     14637     14639     14633     14632     14635     14636
     14633     14632     14635     14637     14634     14632     14635     14636
     14634     14632     14635     14637     14635     14637     14639     14640
     14635     14637     14639     14641     14635     14637     14639     14642
     14636     14635     14637     14638     14636     14635     14637     14639
     14637     14639     14642     14643     14637     14639     14642     14644
     14637     14639     14642     14645     14638     14637     14639     14640
     14638     14637     14639     14641     14638     14637     14639     14642
     14639     14642     14645     14646     14639     14642     14645     14647
     14639     14642     14645     14648     14640     14639     14642     14643
     14640     14639     14642     14644     14640     14639     14642     14645
     14641     14639     14642     14643     14641     14639     14642     14644
     14641     14639     14642     14645     14642     14645     14648     14649
     14642     14645     14648     14650     14642     14645     14648     14651
     14643     14642     14645     14646     14643     14642     14645     14647
     14643     14642     14645     14648     14644     14642     14645     14646
     14644     14642     14645     14647     14644     14642     14645     14648
     14645     14648     14651     14652     14645     14648     14651     14653
     14645     14648     14651     14654     14646     14645     14648     14649
     14646     14645     14648     14650     14646     14645     14648     14651
     14647     14645     14648     14649     14647     14645     14648     14650
     14647     14645     14648     14651     14648     14651     14654     14655
     14648     14651     14654     14656     14648     14651     14654     14657
     14649     14648     14651     14652     14649     14648     14651     14653
     14649     14648     14651     14654     14650     14648     14651     14652
     14650     14648     14651     14653     14650     14648     14651     14654
     14651     14654     14657     14658     14651     14654     14657     14659
     14651     14654     14657     14660     14652     14651     14654     14655
     14652     14651     14654     14656     14652     14651     14654     14657
     14653     14651     14654     14655     14653     14651     14654     14656
     14653     14651     14654     14657     14654     14657     14660     14661
     14654     14657     14660     14662     14654     14657     14660     14663
     14655     14654     14657     14658     14655     14654     14657     14659
     14655     14654     14657     14660     14656     14654     14657     14658
     14656     14654     14657     14659     14656     14654     14657     14660
     14658     14657     14660     14661     14658     14657     14660     14662
     14658     14657     14660     14663     14659     14657     14660     14661
     14659     14657     14660     14662     14659     14657     14660     14663
     14664     14667     14670     14671     14664     14667     14670     14672
     14664     14667     14670     14673     14665     14664     14667     14668
     14665     14664     14667     14669     14665     14664     14667     14670
     14666     14664     14667     14668     14666     14664     14667     14669
     14666     14664     14667     14670     14667     14670     14673     14674
     14667     14670     14673     14675     14667     14670     14673     14676
     14668     14667     14670     14671     14668     14667     14670     14672
     14668     14667     14670     14673     14669     14667     14670     14671
     14669     14667     14670     14672     14669     14667     14670     14673
     14670     14673     14676     14677     14670     14673     14676     14678
     14670     14673     14676     14679     14671     14670     14673     14674
     14671     14670     14673     14675     14671     14670     14673     14676
     14672     14670     14673     14674     14672     14670     14673     14675
     14672     14670     14673     14676     14673     14676     14679     14680
     14673     14676     14679     14681     14673     14676     14679     14682
     14674     14673     14676     14677     14674     14673     14676     14678
     14674     14673     14676     14679     14675     14673     14676     14677
     14675     14673     14676     14678     14675     14673     14676     14679
     14676     14679     14682     14683     14676     14679     14682     14684
     14676     14679     14682     14685     14677     14676     14679     14680
     14677     14676     14679     14681     14677     14676     14679     14682
     14678     14676     14679     14680     14678     14676     14679     14681
     14678     14676     14679     14682     14679     14682     14685     14686
     14679     14682     14685     14687     14679     14682     14685     14688
     14680     14679     14682     14683     14680     14679     14682     14684
     14680     14679     14682     14685     14681     14679     14682     14683
     14681     14679     14682     14684     14681     14679     14682     14685
     14682     14685     14688     14689     14682     14685     14688     14690
     14682     14685     14688     14691     14683     14682     14685     14686
     14683     14682     14685     14687     14683     14682     14685     14688
     14684     14682     14685     14686     14684     14682     14685     14687
     14684     14682     14685     14688     14685     14688     14691     14692
     14685     14688     14691     14693     14685     14688     14691     14694
     14686     14685     14688     14689     14686     14685     14688     14690
     14686     14685     14688     14691     14687     14685     14688     14689
     14687     14685     14688     14690     14687     14685     14688     14691
     14688     14691     14694     14695     14688     14691     14694     14696
     14688     14691     14694     14697     14689     14688     14691     14692
     14689     14688     14691     14693     14689     14688     14691     14694
     14690     14688     14691     14692     14690     14688     14691     14693
     14690     14688     14691     14694     14691     14694     14697     14698
     14691     14694     14697     14699     14691     14694     14697     14700
     14692     14691     14694     14695     14692     14691     14694     14696
     14692     14691     14694     14697     14693     14691     14694     14695
     14693     14691     14694     14696     14693     14691     14694     14697
     14694     14697     14700     14701     14694     14697     14700     14702
     14694     14697     14700     14703     14695     14694     14697     14698
     14695     14694     14697     14699     14695     14694     14697     14700
     14696     14694     14697     14698     14696     14694     14697     14699
     14696     14694     14697     14700     14697     14700     14703     14704
     14697     14700     14703     14705     14697     14700     14703     14706
     14698     14697     14700     14701     14698     14697     14700     14702
     14698     14697     14700     14703     14699     14697     14700     14701
     14699     14697     14700     14702     14699     14697     14700     14703
     14701     14700     14703     14704     14701     14700     14703     14705
     14701     14700     14703     14706     14702     14700     14703     14704
     14702     14700     14703     14705     14702     14700     14703     14706
     14707     14708     14723     14724     14707     14708     14723     14725
     14707     14708     14723     14729     14708     14707     14711     14712
     14708     14707     14711     14713     14708     14707     14711     14714
     14708     14707     14715     14716     14708     14707     14715     14717
     14708     14707     14715     14718     14708     14707     14719     14720
     14708     14707     14719     14721     14708     14707     14719     14722
     14708     14723     14729     14726     14709     14708     14707     14711
     14709     14708     14707     14715     14709     14708     14707     14719
     14709     14708     14723     14724     14709     14708     14723     14725
     14709     14708     14723     14729     14710     14708     14707     14711
     14710     14708     14707     14715     14710     14708     14707     14719
     14710     14708     14723     14724     14710     14708     14723     14725
     14710     14708     14723     14729     14711     14707     14708     14723
     14711     14707     14715     14716     14711     14707     14715     14717
     14711     14707     14715     14718     14711     14707     14719     14720
     14711     14707     14719     14721     14711     14707     14719     14722
     14712     14711     14707     14715     14712     14711     14707     14719
     14713     14711     14707     14715     14713     14711     14707     14719
     14714     14711     14707     14715     14714     14711     14707     14719
     14715     14707     14708     14723     14715     14707     14719     14720
     14715     14707     14719     14721     14715     14707     14719     14722
     14716     14715     14707     14719     14717     14715     14707     14719
     14718     14715     14707     14719     14719     14707     14708     14723
     14723     14729     14726     14727     14723     14729     14726     14728
     14723     14729     14726     14730     14724     14723     14729     14726
     14725     14723     14729     14726     14726     14730     14731     14732
     14726     14730     14731     14733     14726     14730     14731     14734
     14727     14726     14730     14731     14728     14726     14730     14731
     14729     14726     14730     14731     14730     14731     14734     14735
     14730     14731     14734     14736     14730     14731     14734     14742
     14731     14734     14736     14737     14731     14734     14742     14743
     14731     14734     14742     14744     14731     14734     14742     14745
     14732     14731     14734     14735     14732     14731     14734     14736
     14732     14731     14734     14742     14733     14731     14734     14735
     14733     14731     14734     14736     14733     14731     14734     14742
     14734     14736     14737     14738     14734     14736     14737     14739
     14734     14742     14745     14746     14735     14734     14736     14737
     14735     14734     14742     14743     14735     14734     14742     14744
     14735     14734     14742     14745     14736     14734     14742     14743
     14736     14734     14742     14744     14736     14734     14742     14745
     14736     14737     14739     14740     14736     14737     14739     14741
     14736     14737     14739     14751     14737     14736     14734     14742
     14737     14739     14751     14752     14737     14739     14751     14753
     14737     14739     14751     14754     14738     14737     14739     14740
     14738     14737     14739     14741     14738     14737     14739     14751
     14739     14751     14754     14755     14739     14751     14754     14756
     14739     14751     14754     14757     14740     14739     14751     14752
     14740     14739     14751     14753     14740     14739     14751     14754
     14741     14739     14751     14752     14741     14739     14751     14753
     14741     14739     14751     14754     14742     14745     14746     14747
     14742     14745     14746     14748     14743     14742     14745     14746
     14744     14742     14745     14746     14745     14746     14748     14749
     14745     14746     14748     14750     14745     14746     14748     14798
     14746     14748     14798     14799     14746     14748     14798     14800
     14746     14748     14798     14801     14747     14746     14748     14749
     14747     14746     14748     14750     14747     14746     14748     14798
     14748     14798     14801     14802     14748     14798     14801     14803
     14748     14798     14801     14804     14749     14748     14798     14799
     14749     14748     14798     14800     14749     14748     14798     14801
     14750     14748     14798     14799     14750     14748     14798     14800
     14750     14748     14798     14801     14751     14754     14757     14758
     14751     14754     14757     14759     14751     14754     14757     14760
     14752     14751     14754     14755     14752     14751     14754     14756
     14752     14751     14754     14757     14753     14751     14754     14755
     14753     14751     14754     14756     14753     14751     14754     14757
     14754     14757     14760     14761     14754     14757     14760     14762
     14754     14757     14760     14763     14755     14754     14757     14758
     14755     14754     14757     14759     14755     14754     14757     14760
     14756     14754     14757     14758     14756     14754     14757     14759
     14756     14754     14757     14760     14757     14760     14763     14764
     14757     14760     14763     14765     14757     14760     14763     14766
     14758     14757     14760     14761     14758     14757     14760     14762
     14758     14757     14760     14763     14759     14757     14760     14761
     14759     14757     14760     14762     14759     14757     14760     14763
     14760     14763     14766     14767     14760     14763     14766     14768
     14760     14763     14766     14769     14761     14760     14763     14764
     14761     14760     14763     14765     14761     14760     14763     14766
     14762     14760     14763     14764     14762     14760     14763     14765
     14762     14760     14763     14766     14763     14766     14769     14770
     14763     14766     14769     14771     14764     14763     14766     14767
     14764     14763     14766     14768     14764     14763     14766     14769
     14765     14763     14766     14767     14765     14763     14766     14768
     14765     14763     14766     14769     14766     14769     14771     14772
     14766     14769     14771     14773     14767     14766     14769     14770
     14767     14766     14769     14771     14768     14766     14769     14770
     14768     14766     14769     14771     14769     14771     14773     14774
     14769     14771     14773     14775     14769     14771     14773     14776
     14770     14769     14771     14772     14770     14769     14771     14773
     14771     14773     14776     14777     14771     14773     14776     14778
     14771     14773     14776     14779     14772     14771     14773     14774
     14772     14771     14773     14775     14772     14771     14773     14776
     14773     14776     14779     14780     14773     14776     14779     14781
     14773     14776     14779     14782     14774     14773     14776     14777
     14774     14773     14776     14778     14774     14773     14776     14779
     14775     14773     14776     14777     14775     14773     14776     14778
     14775     14773     14776     14779     14776     14779     14782     14783
     14776     14779     14782     14784     14776     14779     14782     14785
     14777     14776     14779     14780     14777     14776     14779     14781
     14777     14776     14779     14782     14778     14776     14779     14780
     14778     14776     14779     14781     14778     14776     14779     14782
     14779     14782     14785     14786     14779     14782     14785     14787
     14779     14782     14785     14788     14780     14779     14782     14783
     14780     14779     14782     14784     14780     14779     14782     14785
     14781     14779     14782     14783     14781     14779     14782     14784
     14781     14779     14782     14785     14782     14785     14788     14789
     14782     14785     14788     14790     14782     14785     14788     14791
     14783     14782     14785     14786     14783     14782     14785     14787
     14783     14782     14785     14788     14784     14782     14785     14786
     14784     14782     14785     14787     14784     14782     14785     14788
     14785     14788     14791     14792     14785     14788     14791     14793
     14785     14788     14791     14794     14786     14785     14788     14789
     14786     14785     14788     14790     14786     14785     14788     14791
     14787     14785     14788     14789     14787     14785     14788     14790
     14787     14785     14788     14791     14788     14791     14794     14795
     14788     14791     14794     14796     14788     14791     14794     14797
     14789     14788     14791     14792     14789     14788     14791     14793
     14789     14788     14791     14794     14790     14788     14791     14792
     14790     14788     14791     14793     14790     14788     14791     14794
     14792     14791     14794     14795     14792     14791     14794     14796
     14792     14791     14794     14797     14793     14791     14794     14795
     14793     14791     14794     14796     14793     14791     14794     14797
     14798     14801     14804     14805     14798     14801     14804     14806
     14798     14801     14804     14807     14799     14798     14801     14802
     14799     14798     14801     14803     14799     14798     14801     14804
     14800     14798     14801     14802     14800     14798     14801     14803
     14800     14798     14801     14804     14801     14804     14807     14808
     14801     14804     14807     14809     14801     14804     14807     14810
     14802     14801     14804     14805     14802     14801     14804     14806
     14802     14801     14804     14807     14803     14801     14804     14805
     14803     14801     14804     14806     14803     14801     14804     14807
     14804     14807     14810     14811     14804     14807     14810     14812
     14804     14807     14810     14813     14805     14804     14807     14808
     14805     14804     14807     14809     14805     14804     14807     14810
     14806     14804     14807     14808     14806     14804     14807     14809
     14806     14804     14807     14810     14807     14810     14813     14814
     14807     14810     14813     14815     14807     14810     14813     14816
     14808     14807     14810     14811     14808     14807     14810     14812
     14808     14807     14810     14813     14809     14807     14810     14811
     14809     14807     14810     14812     14809     14807     14810     14813
     14810     14813     14816     14817     14810     14813     14816     14818
     14810     14813     14816     14819     14811     14810     14813     14814
     14811     14810     14813     14815     14811     14810     14813     14816
     14812     14810     14813     14814     14812     14810     14813     14815
     14812     14810     14813     14816     14813     14816     14819     14820
     14813     14816     14819     14821     14813     14816     14819     14822
     14814     14813     14816     14817     14814     14813     14816     14818
     14814     14813     14816     14819     14815     14813     14816     14817
     14815     14813     14816     14818     14815     14813     14816     14819
     14816     14819     14822     14823     14816     14819     14822     14824
     14816     14819     14822     14825     14817     14816     14819     14820
     14817     14816     14819     14821     14817     14816     14819     14822
     14818     14816     14819     14820     14818     14816     14819     14821
     14818     14816     14819     14822     14819     14822     14825     14826
     14819     14822     14825     14827     14819     14822     14825     14828
     14820     14819     14822     14823     14820     14819     14822     14824
     14820     14819     14822     14825     14821     14819     14822     14823
     14821     14819     14822     14824     14821     14819     14822     14825
     14822     14825     14828     14829     14822     14825     14828     14830
     14822     14825     14828     14831     14823     14822     14825     14826
     14823     14822     14825     14827     14823     14822     14825     14828
     14824     14822     14825     14826     14824     14822     14825     14827
     14824     14822     14825     14828     14825     14828     14831     14832
     14825     14828     14831     14833     14825     14828     14831     14834
     14826     14825     14828     14829     14826     14825     14828     14830
     14826     14825     14828     14831     14827     14825     14828     14829
     14827     14825     14828     14830     14827     14825     14828     14831
     14828     14831     14834     14835     14828     14831     14834     14836
     14828     14831     14834     14837     14829     14828     14831     14832
     14829     14828     14831     14833     14829     14828     14831     14834
     14830     14828     14831     14832     14830     14828     14831     14833
     14830     14828     14831     14834     14831     14834     14837     14838
     14831     14834     14837     14839     14831     14834     14837     14840
     14832     14831     14834     14835     14832     14831     14834     14836
     14832     14831     14834     14837     14833     14831     14834     14835
     14833     14831     14834     14836     14833     14831     14834     14837
     14835     14834     14837     14838     14835     14834     14837     14839
     14835     14834     14837     14840     14836     14834     14837     14838
     14836     14834     14837     14839     14836     14834     14837     14840
     14841     14842     14857     14858     14841     14842     14857     14859
     14841     14842     14857     14863     14842     14841     14845     14846
     14842     14841     14845     14847     14842     14841     14845     14848
     14842     14841     14849     14850     14842     14841     14849     14851
     14842     14841     14849     14852     14842     14841     14853     14854
     14842     14841     14853     14855     14842     14841     14853     14856
     14842     14857     14863     14860     14843     14842     14841     14845
     14843     14842     14841     14849     14843     14842     14841     14853
     14843     14842     14857     14858     14843     14842     14857     14859
     14843     14842     14857     14863     14844     14842     14841     14845
     14844     14842     14841     14849     14844     14842     14841     14853
     14844     14842     14857     14858     14844     14842     14857     14859
     14844     14842     14857     14863     14845     14841     14842     14857
     14845     14841     14849     14850     14845     14841     14849     14851
     14845     14841     14849     14852     14845     14841     14853     14854
     14845     14841     14853     14855     14845     14841     14853     14856
     14846     14845     14841     14849     14846     14845     14841     14853
     14847     14845     14841     14849     14847     14845     14841     14853
     14848     14845     14841     14849     14848     14845     14841     14853
     14849     14841     14842     14857     14849     14841     14853     14854
     14849     14841     14853     14855     14849     14841     14853     14856
     14850     14849     14841     14853     14851     14849     14841     14853
     14852     14849     14841     14853     14853     14841     14842     14857
     14857     14863     14860     14861     14857     14863     14860     14862
     14857     14863     14860     14864     14858     14857     14863     14860
     14859     14857     14863     14860     14860     14864     14865     14866
     14860     14864     14865     14867     14860     14864     14865     14868
     14861     14860     14864     14865     14862     14860     14864     14865
     14863     14860     14864     14865     14864     14865     14868     14869
     14864     14865     14868     14870     14864     14865     14868     14876
     14865     14868     14870     14871     14865     14868     14876     14877
     14865     14868     14876     14878     14865     14868     14876     14879
     14866     14865     14868     14869     14866     14865     14868     14870
     14866     14865     14868     14876     14867     14865     14868     14869
     14867     14865     14868     14870     14867     14865     14868     14876
     14868     14870     14871     14872     14868     14870     14871     14873
     14868     14876     14879     14880     14869     14868     14870     14871
     14869     14868     14876     14877     14869     14868     14876     14878
     14869     14868     14876     14879     14870     14868     14876     14877
     14870     14868     14876     14878     14870     14868     14876     14879
     14870     14871     14873     14874     14870     14871     14873     14875
     14870     14871     14873     14885     14871     14870     14868     14876
     14871     14873     14885     14886     14871     14873     14885     14887
     14871     14873     14885     14888     14872     14871     14873     14874
     14872     14871     14873     14875     14872     14871     14873     14885
     14873     14885     14888     14889     14873     14885     14888     14890
     14873     14885     14888     14891     14874     14873     14885     14886
     14874     14873     14885     14887     14874     14873     14885     14888
     14875     14873     14885     14886     14875     14873     14885     14887
     14875     14873     14885     14888     14876     14879     14880     14881
     14876     14879     14880     14882     14877     14876     14879     14880
     14878     14876     14879     14880     14879     14880     14882     14883
     14879     14880     14882     14884     14879     14880     14882     14932
     14880     14882     14932     14933     14880     14882     14932     14934
     14880     14882     14932     14935     14881     14880     14882     14883
     14881     14880     14882     14884     14881     14880     14882     14932
     14882     14932     14935     14936     14882     14932     14935     14937
     14882     14932     14935     14938     14883     14882     14932     14933
     14883     14882     14932     14934     14883     14882     14932     14935
     14884     14882     14932     14933     14884     14882     14932     14934
     14884     14882     14932     14935     14885     14888     14891     14892
     14885     14888     14891     14893     14885     14888     14891     14894
     14886     14885     14888     14889     14886     14885     14888     14890
     14886     14885     14888     14891     14887     14885     14888     14889
     14887     14885     14888     14890     14887     14885     14888     14891
     14888     14891     14894     14895     14888     14891     14894     14896
     14888     14891     14894     14897     14889     14888     14891     14892
     14889     14888     14891     14893     14889     14888     14891     14894
     14890     14888     14891     14892     14890     14888     14891     14893
     14890     14888     14891     14894     14891     14894     14897     14898
     14891     14894     14897     14899     14891     14894     14897     14900
     14892     14891     14894     14895     14892     14891     14894     14896
     14892     14891     14894     14897     14893     14891     14894     14895
     14893     14891     14894     14896     14893     14891     14894     14897
     14894     14897     14900     14901     14894     14897     14900     14902
     14894     14897     14900     14903     14895     14894     14897     14898
     14895     14894     14897     14899     14895     14894     14897     14900
     14896     14894     14897     14898     14896     14894     14897     14899
     14896     14894     14897     14900     14897     14900     14903     14904
     14897     14900     14903     14905     14898     14897     14900     14901
     14898     14897     14900     14902     14898     14897     14900     14903
     14899     14897     14900     14901     14899     14897     14900     14902
     14899     14897     14900     14903     14900     14903     14905     14906
     14900     14903     14905     14907     14901     14900     14903     14904
     14901     14900     14903     14905     14902     14900     14903     14904
     14902     14900     14903     14905     14903     14905     14907     14908
     14903     14905     14907     14909     14903     14905     14907     14910
     14904     14903     14905     14906     14904     14903     14905     14907
     14905     14907     14910     14911     14905     14907     14910     14912
     14905     14907     14910     14913     14906     14905     14907     14908
     14906     14905     14907     14909     14906     14905     14907     14910
     14907     14910     14913     14914     14907     14910     14913     14915
     14907     14910     14913     14916     14908     14907     14910     14911
     14908     14907     14910     14912     14908     14907     14910     14913
     14909     14907     14910     14911     14909     14907     14910     14912
     14909     14907     14910     14913     14910     14913     14916     14917
     14910     14913     14916     14918     14910     14913     14916     14919
     14911     14910     14913     14914     14911     14910     14913     14915
     14911     14910     14913     14916     14912     14910     14913     14914
     14912     14910     14913     14915     14912     14910     14913     14916
     14913     14916     14919     14920     14913     14916     14919     14921
     14913     14916     14919     14922     14914     14913     14916     14917
     14914     14913     14916     14918     14914     14913     14916     14919
     14915     14913     14916     14917     14915     14913     14916     14918
     14915     14913     14916     14919     14916     14919     14922     14923
     14916     14919     14922     14924     14916     14919     14922     14925
     14917     14916     14919     14920     14917     14916     14919     14921
     14917     14916     14919     14922     14918     14916     14919     14920
     14918     14916     14919     14921     14918     14916     14919     14922
     14919     14922     14925     14926     14919     14922     14925     14927
     14919     14922     14925     14928     14920     14919     14922     14923
     14920     14919     14922     14924     14920     14919     14922     14925
     14921     14919     14922     14923     14921     14919     14922     14924
     14921     14919     14922     14925     14922     14925     14928     14929
     14922     14925     14928     14930     14922     14925     14928     14931
     14923     14922     14925     14926     14923     14922     14925     14927
     14923     14922     14925     14928     14924     14922     14925     14926
     14924     14922     14925     14927     14924     14922     14925     14928
     14926     14925     14928     14929     14926     14925     14928     14930
     14926     14925     14928     14931     14927     14925     14928     14929
     14927     14925     14928     14930     14927     14925     14928     14931
     14932     14935     14938     14939     14932     14935     14938     14940
     14932     14935     14938     14941     14933     14932     14935     14936
     14933     14932     14935     14937     14933     14932     14935     14938
     14934     14932     14935     14936     14934     14932     14935     14937
     14934     14932     14935     14938     14935     14938     14941     14942
     14935     14938     14941     14943     14935     14938     14941     14944
     14936     14935     14938     14939     14936     14935     14938     14940
     14936     14935     14938     14941     14937     14935     14938     14939
     14937     14935     14938     14940     14937     14935     14938     14941
     14938     14941     14944     14945     14938     14941     14944     14946
     14938     14941     14944     14947     14939     14938     14941     14942
     14939     14938     14941     14943     14939     14938     14941     14944
     14940     14938     14941     14942     14940     14938     14941     14943
     14940     14938     14941     14944     14941     14944     14947     14948
     14941     14944     14947     14949     14941     14944     14947     14950
     14942     14941     14944     14945     14942     14941     14944     14946
     14942     14941     14944     14947     14943     14941     14944     14945
     14943     14941     14944     14946     14943     14941     14944     14947
     14944     14947     14950     14951     14944     14947     14950     14952
     14944     14947     14950     14953     14945     14944     14947     14948
     14945     14944     14947     14949     14945     14944     14947     14950
     14946     14944     14947     14948     14946     14944     14947     14949
     14946     14944     14947     14950     14947     14950     14953     14954
     14947     14950     14953     14955     14947     14950     14953     14956
     14948     14947     14950     14951     14948     14947     14950     14952
     14948     14947     14950     14953     14949     14947     14950     14951
     14949     14947     14950     14952     14949     14947     14950     14953
     14950     14953     14956     14957     14950     14953     14956     14958
     14950     14953     14956     14959     14951     14950     14953     14954
     14951     14950     14953     14955     14951     14950     14953     14956
     14952     14950     14953     14954     14952     14950     14953     14955
     14952     14950     14953     14956     14953     14956     14959     14960
     14953     14956     14959     14961     14953     14956     14959     14962
     14954     14953     14956     14957     14954     14953     14956     14958
     14954     14953     14956     14959     14955     14953     14956     14957
     14955     14953     14956     14958     14955     14953     14956     14959
     14956     14959     14962     14963     14956     14959     14962     14964
     14956     14959     14962     14965     14957     14956     14959     14960
     14957     14956     14959     14961     14957     14956     14959     14962
     14958     14956     14959     14960     14958     14956     14959     14961
     14958     14956     14959     14962     14959     14962     14965     14966
     14959     14962     14965     14967     14959     14962     14965     14968
     14960     14959     14962     14963     14960     14959     14962     14964
     14960     14959     14962     14965     14961     14959     14962     14963
     14961     14959     14962     14964     14961     14959     14962     14965
     14962     14965     14968     14969     14962     14965     14968     14970
     14962     14965     14968     14971     14963     14962     14965     14966
     14963     14962     14965     14967     14963     14962     14965     14968
     14964     14962     14965     14966     14964     14962     14965     14967
     14964     14962     14965     14968     14965     14968     14971     14972
     14965     14968     14971     14973     14965     14968     14971     14974
     14966     14965     14968     14969     14966     14965     14968     14970
     14966     14965     14968     14971     14967     14965     14968     14969
     14967     14965     14968     14970     14967     14965     14968     14971
     14969     14968     14971     14972     14969     14968     14971     14973
     14969     14968     14971     14974     14970     14968     14971     14972
     14970     14968     14971     14973     14970     14968     14971     14974
     14975     14979     14981     14982     14975     14979     14981     14983
     14975     14979     14984     14985     14975     14979     14984     14986
     14975     14979     14984     14990     14976     14975     14979     14980
     14976     14975     14979     14981     14976     14975     14979     14984
     14977     14975     14979     14980     14977     14975     14979     14981
     14977     14975     14979     14984     14978     14975     14979     14980
     14978     14975     14979     14981     14978     14975     14979     14984
     14979     14984     14990     14987     14980     14979     14981     14982
     14980     14979     14981     14983     14980     14979     14984     14985
     14980     14979     14984     14986     14980     14979     14984     14990
     14981     14979     14984     14985     14981     14979     14984     14986
     14981     14979     14984     14990     14982     14981     14979     14984
     14983     14981     14979     14984     14984     14990     14987     14988
     14984     14990     14987     14989     14984     14990     14987     14991
     14985     14984     14990     14987     14986     14984     14990     14987
     14987     14991     14992     14993     14987     14991     14992     14994
     14987     14991     14992     14995     14988     14987     14991     14992
     14989     14987     14991     14992     14990     14987     14991     14992
     14991     14992     14995     14996     14991     14992     14995     14997
     14991     14992     14995     15003     14992     14995     14997     14998
     14992     14995     15003     15004     14992     14995     15003     15005
     14992     14995     15003     15006     14993     14992     14995     14996
     14993     14992     14995     14997     14993     14992     14995     15003
     14994     14992     14995     14996     14994     14992     14995     14997
     14994     14992     14995     15003     14995     14997     14998     14999
     14995     14997     14998     15000     14995     15003     15006     15007
     14996     14995     14997     14998     14996     14995     15003     15004
     14996     14995     15003     15005     14996     14995     15003     15006
     14997     14995     15003     15004     14997     14995     15003     15005
     14997     14995     15003     15006     14997     14998     15000     15001
     14997     14998     15000     15002     14997     14998     15000     15012
     14998     14997     14995     15003     14998     15000     15012     15013
     14998     15000     15012     15014     14998     15000     15012     15015
     14999     14998     15000     15001     14999     14998     15000     15002
     14999     14998     15000     15012     15000     15012     15015     15016
     15000     15012     15015     15017     15000     15012     15015     15018
     15001     15000     15012     15013     15001     15000     15012     15014
     15001     15000     15012     15015     15002     15000     15012     15013
     15002     15000     15012     15014     15002     15000     15012     15015
     15003     15006     15007     15008     15003     15006     15007     15009
     15004     15003     15006     15007     15005     15003     15006     15007
     15006     15007     15009     15010     15006     15007     15009     15011
     15006     15007     15009     15059     15007     15009     15059     15060
     15007     15009     15059     15061     15007     15009     15059     15062
     15008     15007     15009     15010     15008     15007     15009     15011
     15008     15007     15009     15059     15009     15059     15062     15063
     15009     15059     15062     15064     15009     15059     15062     15065
     15010     15009     15059     15060     15010     15009     15059     15061
     15010     15009     15059     15062     15011     15009     15059     15060
     15011     15009     15059     15061     15011     15009     15059     15062
     15012     15015     15018     15019     15012     15015     15018     15020
     15012     15015     15018     15021     15013     15012     15015     15016
     15013     15012     15015     15017     15013     15012     15015     15018
     15014     15012     15015     15016     15014     15012     15015     15017
     15014     15012     15015     15018     15015     15018     15021     15022
     15015     15018     15021     15023     15015     15018     15021     15024
     15016     15015     15018     15019     15016     15015     15018     15020
     15016     15015     15018     15021     15017     15015     15018     15019
     15017     15015     15018     15020     15017     15015     15018     15021
     15018     15021     15024     15025     15018     15021     15024     15026
     15018     15021     15024     15027     15019     15018     15021     15022
     15019     15018     15021     15023     15019     15018     15021     15024
     15020     15018     15021     15022     15020     15018     15021     15023
     15020     15018     15021     15024     15021     15024     15027     15028
     15021     15024     15027     15029     15021     15024     15027     15030
     15022     15021     15024     15025     15022     15021     15024     15026
     15022     15021     15024     15027     15023     15021     15024     15025
     15023     15021     15024     15026     15023     15021     15024     15027
     15024     15027     15030     15031     15024     15027     15030     15032
     15025     15024     15027     15028     15025     15024     15027     15029
     15025     15024     15027     15030     15026     15024     15027     15028
     15026     15024     15027     15029     15026     15024     15027     15030
     15027     15030     15032     15033     15027     15030     15032     15034
     15028     15027     15030     15031     15028     15027     15030     15032
     15029     15027     15030     15031     15029     15027     15030     15032
     15030     15032     15034     15035     15030     15032     15034     15036
     15030     15032     15034     15037     15031     15030     15032     15033
     15031     15030     15032     15034     15032     15034     15037     15038
     15032     15034     15037     15039     15032     15034     15037     15040
     15033     15032     15034     15035     15033     15032     15034     15036
     15033     15032     15034     15037     15034     15037     15040     15041
     15034     15037     15040     15042     15034     15037     15040     15043
     15035     15034     15037     15038     15035     15034     15037     15039
     15035     15034     15037     15040     15036     15034     15037     15038
     15036     15034     15037     15039     15036     15034     15037     15040
     15037     15040     15043     15044     15037     15040     15043     15045
     15037     15040     15043     15046     15038     15037     15040     15041
     15038     15037     15040     15042     15038     15037     15040     15043
     15039     15037     15040     15041     15039     15037     15040     15042
     15039     15037     15040     15043     15040     15043     15046     15047
     15040     15043     15046     15048     15040     15043     15046     15049
     15041     15040     15043     15044     15041     15040     15043     15045
     15041     15040     15043     15046     15042     15040     15043     15044
     15042     15040     15043     15045     15042     15040     15043     15046
     15043     15046     15049     15050     15043     15046     15049     15051
     15043     15046     15049     15052     15044     15043     15046     15047
     15044     15043     15046     15048     15044     15043     15046     15049
     15045     15043     15046     15047     15045     15043     15046     15048
     15045     15043     15046     15049     15046     15049     15052     15053
     15046     15049     15052     15054     15046     15049     15052     15055
     15047     15046     15049     15050     15047     15046     15049     15051
     15047     15046     15049     15052     15048     15046     15049     15050
     15048     15046     15049     15051     15048     15046     15049     15052
     15049     15052     15055     15056     15049     15052     15055     15057
     15049     15052     15055     15058     15050     15049     15052     15053
     15050     15049     15052     15054     15050     15049     15052     15055
     15051     15049     15052     15053     15051     15049     15052     15054
     15051     15049     15052     15055     15053     15052     15055     15056
     15053     15052     15055     15057     15053     15052     15055     15058
     15054     15052     15055     15056     15054     15052     15055     15057
     15054     15052     15055     15058     15059     15062     15065     15066
     15059     15062     15065     15067     15059     15062     15065     15068
     15060     15059     15062     15063     15060     15059     15062     15064
     15060     15059     15062     15065     15061     15059     15062     15063
     15061     15059     15062     15064     15061     15059     15062     15065
     15062     15065     15068     15069     15062     15065     15068     15070
     15062     15065     15068     15071     15063     15062     15065     15066
     15063     15062     15065     15067     15063     15062     15065     15068
     15064     15062     15065     15066     15064     15062     15065     15067
     15064     15062     15065     15068     15065     15068     15071     15072
     15065     15068     15071     15073     15065     15068     15071     15074
     15066     15065     15068     15069     15066     15065     15068     15070
     15066     15065     15068     15071     15067     15065     15068     15069
     15067     15065     15068     15070     15067     15065     15068     15071
     15068     15071     15074     15075     15068     15071     15074     15076
     15068     15071     15074     15077     15069     15068     15071     15072
     15069     15068     15071     15073     15069     15068     15071     15074
     15070     15068     15071     15072     15070     15068     15071     15073
     15070     15068     15071     15074     15071     15074     15077     15078
     15071     15074     15077     15079     15071     15074     15077     15080
     15072     15071     15074     15075     15072     15071     15074     15076
     15072     15071     15074     15077     15073     15071     15074     15075
     15073     15071     15074     15076     15073     15071     15074     15077
     15074     15077     15080     15081     15074     15077     15080     15082
     15074     15077     15080     15083     15075     15074     15077     15078
     15075     15074     15077     15079     15075     15074     15077     15080
     15076     15074     15077     15078     15076     15074     15077     15079
     15076     15074     15077     15080     15077     15080     15083     15084
     15077     15080     15083     15085     15077     15080     15083     15086
     15078     15077     15080     15081     15078     15077     15080     15082
     15078     15077     15080     15083     15079     15077     15080     15081
     15079     15077     15080     15082     15079     15077     15080     15083
     15080     15083     15086     15087     15080     15083     15086     15088
     15080     15083     15086     15089     15081     15080     15083     15084
     15081     15080     15083     15085     15081     15080     15083     15086
     15082     15080     15083     15084     15082     15080     15083     15085
     15082     15080     15083     15086     15083     15086     15089     15090
     15083     15086     15089     15091     15083     15086     15089     15092
     15084     15083     15086     15087     15084     15083     15086     15088
     15084     15083     15086     15089     15085     15083     15086     15087
     15085     15083     15086     15088     15085     15083     15086     15089
     15086     15089     15092     15093     15086     15089     15092     15094
     15086     15089     15092     15095     15087     15086     15089     15090
     15087     15086     15089     15091     15087     15086     15089     15092
     15088     15086     15089     15090     15088     15086     15089     15091
     15088     15086     15089     15092     15089     15092     15095     15096
     15089     15092     15095     15097     15089     15092     15095     15098
     15090     15089     15092     15093     15090     15089     15092     15094
     15090     15089     15092     15095     15091     15089     15092     15093
     15091     15089     15092     15094     15091     15089     15092     15095
     15092     15095     15098     15099     15092     15095     15098     15100
     15092     15095     15098     15101     15093     15092     15095     15096
     15093     15092     15095     15097     15093     15092     15095     15098
     15094     15092     15095     15096     15094     15092     15095     15097
     15094     15092     15095     15098     15096     15095     15098     15099
     15096     15095     15098     15100     15096     15095     15098     15101
     15097     15095     15098     15099     15097     15095     15098     15100
     15097     15095     15098     15101     15102     15103     15118     15119
     15102     15103     15118     15120     15102     15103     15118     15124
     15103     15102     15106     15107     15103     15102     15106     15108
     15103     15102     15106     15109     15103     15102     15110     15111
     15103     15102     15110     15112     15103     15102     15110     15113
     15103     15102     15114     15115     15103     15102     15114     15116
     15103     15102     15114     15117     15103     15118     15124     15121
     15104     15103     15102     15106     15104     15103     15102     15110
     15104     15103     15102     15114     15104     15103     15118     15119
     15104     15103     15118     15120     15104     15103     15118     15124
     15105     15103     15102     15106     15105     15103     15102     15110
     15105     15103     15102     15114     15105     15103     15118     15119
     15105     15103     15118     15120     15105     15103     15118     15124
     15106     15102     15103     15118     15106     15102     15110     15111
     15106     15102     15110     15112     15106     15102     15110     15113
     15106     15102     15114     15115     15106     15102     15114     15116
     15106     15102     15114     15117     15107     15106     15102     15110
     15107     15106     15102     15114     15108     15106     15102     15110
     15108     15106     15102     15114     15109     15106     15102     15110
     15109     15106     15102     15114     15110     15102     15103     15118
     15110     15102     15114     15115     15110     15102     15114     15116
     15110     15102     15114     15117     15111     15110     15102     15114
     15112     15110     15102     15114     15113     15110     15102     15114
     15114     15102     15103     15118     15118     15124     15121     15122
     15118     15124     15121     15123     15118     15124     15121     15125
     15119     15118     15124     15121     15120     15118     15124     15121
     15121     15125     15126     15127     15121     15125     15126     15128
     15121     15125     15126     15129     15122     15121     15125     15126
     15123     15121     15125     15126     15124     15121     15125     15126
     15125     15126     15129     15130     15125     15126     15129     15131
     15125     15126     15129     15137     15126     15129     15131     15132
     15126     15129     15137     15138     15126     15129     15137     15139
     15126     15129     15137     15140     15127     15126     15129     15130
     15127     15126     15129     15131     15127     15126     15129     15137
     15128     15126     15129     15130     15128     15126     15129     15131
     15128     15126     15129     15137     15129     15131     15132     15133
     15129     15131     15132     15134     15129     15137     15140     15141
     15130     15129     15131     15132     15130     15129     15137     15138
     15130     15129     15137     15139     15130     15129     15137     15140
     15131     15129     15137     15138     15131     15129     15137     15139
     15131     15129     15137     15140     15131     15132     15134     15135
     15131     15132     15134     15136     15131     15132     15134     15146
     15132     15131     15129     15137     15132     15134     15146     15147
     15132     15134     15146     15148     15132     15134     15146     15149
     15133     15132     15134     15135     15133     15132     15134     15136
     15133     15132     15134     15146     15134     15146     15149     15150
     15134     15146     15149     15151     15134     15146     15149     15152
     15135     15134     15146     15147     15135     15134     15146     15148
     15135     15134     15146     15149     15136     15134     15146     15147
     15136     15134     15146     15148     15136     15134     15146     15149
     15137     15140     15141     15142     15137     15140     15141     15143
     15138     15137     15140     15141     15139     15137     15140     15141
     15140     15141     15143     15144     15140     15141     15143     15145
     15140     15141     15143     15193     15141     15143     15193     15194
     15141     15143     15193     15195     15141     15143     15193     15196
     15142     15141     15143     15144     15142     15141     15143     15145
     15142     15141     15143     15193     15143     15193     15196     15197
     15143     15193     15196     15198     15143     15193     15196     15199
     15144     15143     15193     15194     15144     15143     15193     15195
     15144     15143     15193     15196     15145     15143     15193     15194
     15145     15143     15193     15195     15145     15143     15193     15196
     15146     15149     15152     15153     15146     15149     15152     15154
     15146     15149     15152     15155     15147     15146     15149     15150
     15147     15146     15149     15151     15147     15146     15149     15152
     15148     15146     15149     15150     15148     15146     15149     15151
     15148     15146     15149     15152     15149     15152     15155     15156
     15149     15152     15155     15157     15149     15152     15155     15158
     15150     15149     15152     15153     15150     15149     15152     15154
     15150     15149     15152     15155     15151     15149     15152     15153
     15151     15149     15152     15154     15151     15149     15152     15155
     15152     15155     15158     15159     15152     15155     15158     15160
     15152     15155     15158     15161     15153     15152     15155     15156
     15153     15152     15155     15157     15153     15152     15155     15158
     15154     15152     15155     15156     15154     15152     15155     15157
     15154     15152     15155     15158     15155     15158     15161     15162
     15155     15158     15161     15163     15155     15158     15161     15164
     15156     15155     15158     15159     15156     15155     15158     15160
     15156     15155     15158     15161     15157     15155     15158     15159
     15157     15155     15158     15160     15157     15155     15158     15161
     15158     15161     15164     15165     15158     15161     15164     15166
     15159     15158     15161     15162     15159     15158     15161     15163
     15159     15158     15161     15164     15160     15158     15161     15162
     15160     15158     15161     15163     15160     15158     15161     15164
     15161     15164     15166     15167     15161     15164     15166     15168
     15162     15161     15164     15165     15162     15161     15164     15166
     15163     15161     15164     15165     15163     15161     15164     15166
     15164     15166     15168     15169     15164     15166     15168     15170
     15164     15166     15168     15171     15165     15164     15166     15167
     15165     15164     15166     15168     15166     15168     15171     15172
     15166     15168     15171     15173     15166     15168     15171     15174
     15167     15166     15168     15169     15167     15166     15168     15170
     15167     15166     15168     15171     15168     15171     15174     15175
     15168     15171     15174     15176     15168     15171     15174     15177
     15169     15168     15171     15172     15169     15168     15171     15173
     15169     15168     15171     15174     15170     15168     15171     15172
     15170     15168     15171     15173     15170     15168     15171     15174
     15171     15174     15177     15178     15171     15174     15177     15179
     15171     15174     15177     15180     15172     15171     15174     15175
     15172     15171     15174     15176     15172     15171     15174     15177
     15173     15171     15174     15175     15173     15171     15174     15176
     15173     15171     15174     15177     15174     15177     15180     15181
     15174     15177     15180     15182     15174     15177     15180     15183
     15175     15174     15177     15178     15175     15174     15177     15179
     15175     15174     15177     15180     15176     15174     15177     15178
     15176     15174     15177     15179     15176     15174     15177     15180
     15177     15180     15183     15184     15177     15180     15183     15185
     15177     15180     15183     15186     15178     15177     15180     15181
     15178     15177     15180     15182     15178     15177     15180     15183
     15179     15177     15180     15181     15179     15177     15180     15182
     15179     15177     15180     15183     15180     15183     15186     15187
     15180     15183     15186     15188     15180     15183     15186     15189
     15181     15180     15183     15184     15181     15180     15183     15185
     15181     15180     15183     15186     15182     15180     15183     15184
     15182     15180     15183     15185     15182     15180     15183     15186
     15183     15186     15189     15190     15183     15186     15189     15191
     15183     15186     15189     15192     15184     15183     15186     15187
     15184     15183     15186     15188     15184     15183     15186     15189
     15185     15183     15186     15187     15185     15183     15186     15188
     15185     15183     15186     15189     15187     15186     15189     15190
     15187     15186     15189     15191     15187     15186     15189     15192
     15188     15186     15189     15190     15188     15186     15189     15191
     15188     15186     15189     15192     15193     15196     15199     15200
     15193     15196     15199     15201     15193     15196     15199     15202
     15194     15193     15196     15197     15194     15193     15196     15198
     15194     15193     15196     15199     15195     15193     15196     15197
     15195     15193     15196     15198     15195     15193     15196     15199
     15196     15199     15202     15203     15196     15199     15202     15204
     15196     15199     15202     15205     15197     15196     15199     15200
     15197     15196     15199     15201     15197     15196     15199     15202
     15198     15196     15199     15200     15198     15196     15199     15201
     15198     15196     15199     15202     15199     15202     15205     15206
     15199     15202     15205     15207     15199     15202     15205     15208
     15200     15199     15202     15203     15200     15199     15202     15204
     15200     15199     15202     15205     15201     15199     15202     15203
     15201     15199     15202     15204     15201     15199     15202     15205
     15202     15205     15208     15209     15202     15205     15208     15210
     15202     15205     15208     15211     15203     15202     15205     15206
     15203     15202     15205     15207     15203     15202     15205     15208
     15204     15202     15205     15206     15204     15202     15205     15207
     15204     15202     15205     15208     15205     15208     15211     15212
     15205     15208     15211     15213     15205     15208     15211     15214
     15206     15205     15208     15209     15206     15205     15208     15210
     15206     15205     15208     15211     15207     15205     15208     15209
     15207     15205     15208     15210     15207     15205     15208     15211
     15208     15211     15214     15215     15208     15211     15214     15216
     15208     15211     15214     15217     15209     15208     15211     15212
     15209     15208     15211     15213     15209     15208     15211     15214
     15210     15208     15211     15212     15210     15208     15211     15213
     15210     15208     15211     15214     15211     15214     15217     15218
     15211     15214     15217     15219     15211     15214     15217     15220
     15212     15211     15214     15215     15212     15211     15214     15216
     15212     15211     15214     15217     15213     15211     15214     15215
     15213     15211     15214     15216     15213     15211     15214     15217
     15214     15217     15220     15221     15214     15217     15220     15222
     15214     15217     15220     15223     15215     15214     15217     15218
     15215     15214     15217     15219     15215     15214     15217     15220
     15216     15214     15217     15218     15216     15214     15217     15219
     15216     15214     15217     15220     15217     15220     15223     15224
     15217     15220     15223     15225     15217     15220     15223     15226
     15218     15217     15220     15221     15218     15217     15220     15222
     15218     15217     15220     15223     15219     15217     15220     15221
     15219     15217     15220     15222     15219     15217     15220     15223
     15220     15223     15226     15227     15220     15223     15226     15228
     15220     15223     15226     15229     15221     15220     15223     15224
     15221     15220     15223     15225     15221     15220     15223     15226
     15222     15220     15223     15224     15222     15220     15223     15225
     15222     15220     15223     15226     15223     15226     15229     15230
     15223     15226     15229     15231     15223     15226     15229     15232
     15224     15223     15226     15227     15224     15223     15226     15228
     15224     15223     15226     15229     15225     15223     15226     15227
     15225     15223     15226     15228     15225     15223     15226     15229
     15226     15229     15232     15233     15226     15229     15232     15234
     15226     15229     15232     15235     15227     15226     15229     15230
     15227     15226     15229     15231     15227     15226     15229     15232
     15228     15226     15229     15230     15228     15226     15229     15231
     15228     15226     15229     15232     15230     15229     15232     15233
     15230     15229     15232     15234     15230     15229     15232     15235
     15231     15229     15232     15233     15231     15229     15232     15234
     15231     15229     15232     15235     15236     15237     15252     15253
     15236     15237     15252     15254     15236     15237     15252     15258
     15237     15236     15240     15241     15237     15236     15240     15242
     15237     15236     15240     15243     15237     15236     15244     15245
     15237     15236     15244     15246     15237     15236     15244     15247
     15237     15236     15248     15249     15237     15236     15248     15250
     15237     15236     15248     15251     15237     15252     15258     15255
     15238     15237     15236     15240     15238     15237     15236     15244
     15238     15237     15236     15248     15238     15237     15252     15253
     15238     15237     15252     15254     15238     15237     15252     15258
     15239     15237     15236     15240     15239     15237     15236     15244
     15239     15237     15236     15248     15239     15237     15252     15253
     15239     15237     15252     15254     15239     15237     15252     15258
     15240     15236     15237     15252     15240     15236     15244     15245
     15240     15236     15244     15246     15240     15236     15244     15247
     15240     15236     15248     15249     15240     15236     15248     15250
     15240     15236     15248     15251     15241     15240     15236     15244
     15241     15240     15236     15248     15242     15240     15236     15244
     15242     15240     15236     15248     15243     15240     15236     15244
     15243     15240     15236     15248     15244     15236     15237     15252
     15244     15236     15248     15249     15244     15236     15248     15250
     15244     15236     15248     15251     15245     15244     15236     15248
     15246     15244     15236     15248     15247     15244     15236     15248
     15248     15236     15237     15252     15252     15258     15255     15256
     15252     15258     15255     15257     15252     15258     15255     15259
     15253     15252     15258     15255     15254     15252     15258     15255
     15255     15259     15260     15261     15255     15259     15260     15262
     15255     15259     15260     15263     15256     15255     15259     15260
     15257     15255     15259     15260     15258     15255     15259     15260
     15259     15260     15263     15264     15259     15260     15263     15265
     15259     15260     15263     15271     15260     15263     15265     15266
     15260     15263     15271     15272     15260     15263     15271     15273
     15260     15263     15271     15274     15261     15260     15263     15264
     15261     15260     15263     15265     15261     15260     15263     15271
     15262     15260     15263     15264     15262     15260     15263     15265
     15262     15260     15263     15271     15263     15265     15266     15267
     15263     15265     15266     15268     15263     15271     15274     15275
     15264     15263     15265     15266     15264     15263     15271     15272
     15264     15263     15271     15273     15264     15263     15271     15274
     15265     15263     15271     15272     15265     15263     15271     15273
     15265     15263     15271     15274     15265     15266     15268     15269
     15265     15266     15268     15270     15265     15266     15268     15280
     15266     15265     15263     15271     15266     15268     15280     15281
     15266     15268     15280     15282     15266     15268     15280     15283
     15267     15266     15268     15269     15267     15266     15268     15270
     15267     15266     15268     15280     15268     15280     15283     15284
     15268     15280     15283     15285     15268     15280     15283     15286
     15269     15268     15280     15281     15269     15268     15280     15282
     15269     15268     15280     15283     15270     15268     15280     15281
     15270     15268     15280     15282     15270     15268     15280     15283
     15271     15274     15275     15276     15271     15274     15275     15277
     15272     15271     15274     15275     15273     15271     15274     15275
     15274     15275     15277     15278     15274     15275     15277     15279
     15274     15275     15277     15327     15275     15277     15327     15328
     15275     15277     15327     15329     15275     15277     15327     15330
     15276     15275     15277     15278     15276     15275     15277     15279
     15276     15275     15277     15327     15277     15327     15330     15331
     15277     15327     15330     15332     15277     15327     15330     15333
     15278     15277     15327     15328     15278     15277     15327     15329
     15278     15277     15327     15330     15279     15277     15327     15328
     15279     15277     15327     15329     15279     15277     15327     15330
     15280     15283     15286     15287     15280     15283     15286     15288
     15280     15283     15286     15289     15281     15280     15283     15284
     15281     15280     15283     15285     15281     15280     15283     15286
     15282     15280     15283     15284     15282     15280     15283     15285
     15282     15280     15283     15286     15283     15286     15289     15290
     15283     15286     15289     15291     15283     15286     15289     15292
     15284     15283     15286     15287     15284     15283     15286     15288
     15284     15283     15286     15289     15285     15283     15286     15287
     15285     15283     15286     15288     15285     15283     15286     15289
     15286     15289     15292     15293     15286     15289     15292     15294
     15286     15289     15292     15295     15287     15286     15289     15290
     15287     15286     15289     15291     15287     15286     15289     15292
     15288     15286     15289     15290     15288     15286     15289     15291
     15288     15286     15289     15292     15289     15292     15295     15296
     15289     15292     15295     15297     15289     15292     15295     15298
     15290     15289     15292     15293     15290     15289     15292     15294
     15290     15289     15292     15295     15291     15289     15292     15293
     15291     15289     15292     15294     15291     15289     15292     15295
     15292     15295     15298     15299     15292     15295     15298     15300
     15293     15292     15295     15296     15293     15292     15295     15297
     15293     15292     15295     15298     15294     15292     15295     15296
     15294     15292     15295     15297     15294     15292     15295     15298
     15295     15298     15300     15301     15295     15298     15300     15302
     15296     15295     15298     15299     15296     15295     15298     15300
     15297     15295     15298     15299     15297     15295     15298     15300
     15298     15300     15302     15303     15298     15300     15302     15304
     15298     15300     15302     15305     15299     15298     15300     15301
     15299     15298     15300     15302     15300     15302     15305     15306
     15300     15302     15305     15307     15300     15302     15305     15308
     15301     15300     15302     15303     15301     15300     15302     15304
     15301     15300     15302     15305     15302     15305     15308     15309
     15302     15305     15308     15310     15302     15305     15308     15311
     15303     15302     15305     15306     15303     15302     15305     15307
     15303     15302     15305     15308     15304     15302     15305     15306
     15304     15302     15305     15307     15304     15302     15305     15308
     15305     15308     15311     15312     15305     15308     15311     15313
     15305     15308     15311     15314     15306     15305     15308     15309
     15306     15305     15308     15310     15306     15305     15308     15311
     15307     15305     15308     15309     15307     15305     15308     15310
     15307     15305     15308     15311     15308     15311     15314     15315
     15308     15311     15314     15316     15308     15311     15314     15317
     15309     15308     15311     15312     15309     15308     15311     15313
     15309     15308     15311     15314     15310     15308     15311     15312
     15310     15308     15311     15313     15310     15308     15311     15314
     15311     15314     15317     15318     15311     15314     15317     15319
     15311     15314     15317     15320     15312     15311     15314     15315
     15312     15311     15314     15316     15312     15311     15314     15317
     15313     15311     15314     15315     15313     15311     15314     15316
     15313     15311     15314     15317     15314     15317     15320     15321
     15314     15317     15320     15322     15314     15317     15320     15323
     15315     15314     15317     15318     15315     15314     15317     15319
     15315     15314     15317     15320     15316     15314     15317     15318
     15316     15314     15317     15319     15316     15314     15317     15320
     15317     15320     15323     15324     15317     15320     15323     15325
     15317     15320     15323     15326     15318     15317     15320     15321
     15318     15317     15320     15322     15318     15317     15320     15323
     15319     15317     15320     15321     15319     15317     15320     15322
     15319     15317     15320     15323     15321     15320     15323     15324
     15321     15320     15323     15325     15321     15320     15323     15326
     15322     15320     15323     15324     15322     15320     15323     15325
     15322     15320     15323     15326     15327     15330     15333     15334
     15327     15330     15333     15335     15327     15330     15333     15336
     15328     15327     15330     15331     15328     15327     15330     15332
     15328     15327     15330     15333     15329     15327     15330     15331
     15329     15327     15330     15332     15329     15327     15330     15333
     15330     15333     15336     15337     15330     15333     15336     15338
     15330     15333     15336     15339     15331     15330     15333     15334
     15331     15330     15333     15335     15331     15330     15333     15336
     15332     15330     15333     15334     15332     15330     15333     15335
     15332     15330     15333     15336     15333     15336     15339     15340
     15333     15336     15339     15341     15333     15336     15339     15342
     15334     15333     15336     15337     15334     15333     15336     15338
     15334     15333     15336     15339     15335     15333     15336     15337
     15335     15333     15336     15338     15335     15333     15336     15339
     15336     15339     15342     15343     15336     15339     15342     15344
     15336     15339     15342     15345     15337     15336     15339     15340
     15337     15336     15339     15341     15337     15336     15339     15342
     15338     15336     15339     15340     15338     15336     15339     15341
     15338     15336     15339     15342     15339     15342     15345     15346
     15339     15342     15345     15347     15339     15342     15345     15348
     15340     15339     15342     15343     15340     15339     15342     15344
     15340     15339     15342     15345     15341     15339     15342     15343
     15341     15339     15342     15344     15341     15339     15342     15345
     15342     15345     15348     15349     15342     15345     15348     15350
     15342     15345     15348     15351     15343     15342     15345     15346
     15343     15342     15345     15347     15343     15342     15345     15348
     15344     15342     15345     15346     15344     15342     15345     15347
     15344     15342     15345     15348     15345     15348     15351     15352
     15345     15348     15351     15353     15345     15348     15351     15354
     15346     15345     15348     15349     15346     15345     15348     15350
     15346     15345     15348     15351     15347     15345     15348     15349
     15347     15345     15348     15350     15347     15345     15348     15351
     15348     15351     15354     15355     15348     15351     15354     15356
     15348     15351     15354     15357     15349     15348     15351     15352
     15349     15348     15351     15353     15349     15348     15351     15354
     15350     15348     15351     15352     15350     15348     15351     15353
     15350     15348     15351     15354     15351     15354     15357     15358
     15351     15354     15357     15359     15351     15354     15357     15360
     15352     15351     15354     15355     15352     15351     15354     15356
     15352     15351     15354     15357     15353     15351     15354     15355
     15353     15351     15354     15356     15353     15351     15354     15357
     15354     15357     15360     15361     15354     15357     15360     15362
     15354     15357     15360     15363     15355     15354     15357     15358
     15355     15354     15357     15359     15355     15354     15357     15360
     15356     15354     15357     15358     15356     15354     15357     15359
     15356     15354     15357     15360     15357     15360     15363     15364
     15357     15360     15363     15365     15357     15360     15363     15366
     15358     15357     15360     15361     15358     15357     15360     15362
     15358     15357     15360     15363     15359     15357     15360     15361
     15359     15357     15360     15362     15359     15357     15360     15363
     15360     15363     15366     15367     15360     15363     15366     15368
     15360     15363     15366     15369     15361     15360     15363     15364
     15361     15360     15363     15365     15361     15360     15363     15366
     15362     15360     15363     15364     15362     15360     15363     15365
     15362     15360     15363     15366     15364     15363     15366     15367
     15364     15363     15366     15368     15364     15363     15366     15369
     15365     15363     15366     15367     15365     15363     15366     15368
     15365     15363     15366     15369     15370     15371     15386     15387
     15370     15371     15386     15388     15370     15371     15386     15392
     15371     15370     15374     15375     15371     15370     15374     15376
     15371     15370     15374     15377     15371     15370     15378     15379
     15371     15370     15378     15380     15371     15370     15378     15381
     15371     15370     15382     15383     15371     15370     15382     15384
     15371     15370     15382     15385     15371     15386     15392     15389
     15372     15371     15370     15374     15372     15371     15370     15378
     15372     15371     15370     15382     15372     15371     15386     15387
     15372     15371     15386     15388     15372     15371     15386     15392
     15373     15371     15370     15374     15373     15371     15370     15378
     15373     15371     15370     15382     15373     15371     15386     15387
     15373     15371     15386     15388     15373     15371     15386     15392
     15374     15370     15371     15386     15374     15370     15378     15379
     15374     15370     15378     15380     15374     15370     15378     15381
     15374     15370     15382     15383     15374     15370     15382     15384
     15374     15370     15382     15385     15375     15374     15370     15378
     15375     15374     15370     15382     15376     15374     15370     15378
     15376     15374     15370     15382     15377     15374     15370     15378
     15377     15374     15370     15382     15378     15370     15371     15386
     15378     15370     15382     15383     15378     15370     15382     15384
     15378     15370     15382     15385     15379     15378     15370     15382
     15380     15378     15370     15382     15381     15378     15370     15382
     15382     15370     15371     15386     15386     15392     15389     15390
     15386     15392     15389     15391     15386     15392     15389     15393
     15387     15386     15392     15389     15388     15386     15392     15389
     15389     15393     15394     15395     15389     15393     15394     15396
     15389     15393     15394     15397     15390     15389     15393     15394
     15391     15389     15393     15394     15392     15389     15393     15394
     15393     15394     15397     15398     15393     15394     15397     15399
     15393     15394     15397     15405     15394     15397     15399     15400
     15394     15397     15405     15406     15394     15397     15405     15407
     15394     15397     15405     15408     15395     15394     15397     15398
     15395     15394     15397     15399     15395     15394     15397     15405
     15396     15394     15397     15398     15396     15394     15397     15399
     15396     15394     15397     15405     15397     15399     15400     15401
     15397     15399     15400     15402     15397     15405     15408     15409
     15398     15397     15399     15400     15398     15397     15405     15406
     15398     15397     15405     15407     15398     15397     15405     15408
     15399     15397     15405     15406     15399     15397     15405     15407
     15399     15397     15405     15408     15399     15400     15402     15403
     15399     15400     15402     15404     15399     15400     15402     15414
     15400     15399     15397     15405     15400     15402     15414     15415
     15400     15402     15414     15416     15400     15402     15414     15417
     15401     15400     15402     15403     15401     15400     15402     15404
     15401     15400     15402     15414     15402     15414     15417     15418
     15402     15414     15417     15419     15402     15414     15417     15420
     15403     15402     15414     15415     15403     15402     15414     15416
     15403     15402     15414     15417     15404     15402     15414     15415
     15404     15402     15414     15416     15404     15402     15414     15417
     15405     15408     15409     15410     15405     15408     15409     15411
     15406     15405     15408     15409     15407     15405     15408     15409
     15408     15409     15411     15412     15408     15409     15411     15413
     15408     15409     15411     15461     15409     15411     15461     15462
     15409     15411     15461     15463     15409     15411     15461     15464
     15410     15409     15411     15412     15410     15409     15411     15413
     15410     15409     15411     15461     15411     15461     15464     15465
     15411     15461     15464     15466     15411     15461     15464     15467
     15412     15411     15461     15462     15412     15411     15461     15463
     15412     15411     15461     15464     15413     15411     15461     15462
     15413     15411     15461     15463     15413     15411     15461     15464
     15414     15417     15420     15421     15414     15417     15420     15422
     15414     15417     15420     15423     15415     15414     15417     15418
     15415     15414     15417     15419     15415     15414     15417     15420
     15416     15414     15417     15418     15416     15414     15417     15419
     15416     15414     15417     15420     15417     15420     15423     15424
     15417     15420     15423     15425     15417     15420     15423     15426
     15418     15417     15420     15421     15418     15417     15420     15422
     15418     15417     15420     15423     15419     15417     15420     15421
     15419     15417     15420     15422     15419     15417     15420     15423
     15420     15423     15426     15427     15420     15423     15426     15428
     15420     15423     15426     15429     15421     15420     15423     15424
     15421     15420     15423     15425     15421     15420     15423     15426
     15422     15420     15423     15424     15422     15420     15423     15425
     15422     15420     15423     15426     15423     15426     15429     15430
     15423     15426     15429     15431     15423     15426     15429     15432
     15424     15423     15426     15427     15424     15423     15426     15428
     15424     15423     15426     15429     15425     15423     15426     15427
     15425     15423     15426     15428     15425     15423     15426     15429
     15426     15429     15432     15433     15426     15429     15432     15434
     15427     15426     15429     15430     15427     15426     15429     15431
     15427     15426     15429     15432     15428     15426     15429     15430
     15428     15426     15429     15431     15428     15426     15429     15432
     15429     15432     15434     15435     15429     15432     15434     15436
     15430     15429     15432     15433     15430     15429     15432     15434
     15431     15429     15432     15433     15431     15429     15432     15434
     15432     15434     15436     15437     15432     15434     15436     15438
     15432     15434     15436     15439     15433     15432     15434     15435
     15433     15432     15434     15436     15434     15436     15439     15440
     15434     15436     15439     15441     15434     15436     15439     15442
     15435     15434     15436     15437     15435     15434     15436     15438
     15435     15434     15436     15439     15436     15439     15442     15443
     15436     15439     15442     15444     15436     15439     15442     15445
     15437     15436     15439     15440     15437     15436     15439     15441
     15437     15436     15439     15442     15438     15436     15439     15440
     15438     15436     15439     15441     15438     15436     15439     15442
     15439     15442     15445     15446     15439     15442     15445     15447
     15439     15442     15445     15448     15440     15439     15442     15443
     15440     15439     15442     15444     15440     15439     15442     15445
     15441     15439     15442     15443     15441     15439     15442     15444
     15441     15439     15442     15445     15442     15445     15448     15449
     15442     15445     15448     15450     15442     15445     15448     15451
     15443     15442     15445     15446     15443     15442     15445     15447
     15443     15442     15445     15448     15444     15442     15445     15446
     15444     15442     15445     15447     15444     15442     15445     15448
     15445     15448     15451     15452     15445     15448     15451     15453
     15445     15448     15451     15454     15446     15445     15448     15449
     15446     15445     15448     15450     15446     15445     15448     15451
     15447     15445     15448     15449     15447     15445     15448     15450
     15447     15445     15448     15451     15448     15451     15454     15455
     15448     15451     15454     15456     15448     15451     15454     15457
     15449     15448     15451     15452     15449     15448     15451     15453
     15449     15448     15451     15454     15450     15448     15451     15452
     15450     15448     15451     15453     15450     15448     15451     15454
     15451     15454     15457     15458     15451     15454     15457     15459
     15451     15454     15457     15460     15452     15451     15454     15455
     15452     15451     15454     15456     15452     15451     15454     15457
     15453     15451     15454     15455     15453     15451     15454     15456
     15453     15451     15454     15457     15455     15454     15457     15458
     15455     15454     15457     15459     15455     15454     15457     15460
     15456     15454     15457     15458     15456     15454     15457     15459
     15456     15454     15457     15460     15461     15464     15467     15468
     15461     15464     15467     15469     15461     15464     15467     15470
     15462     15461     15464     15465     15462     15461     15464     15466
     15462     15461     15464     15467     15463     15461     15464     15465
     15463     15461     15464     15466     15463     15461     15464     15467
     15464     15467     15470     15471     15464     15467     15470     15472
     15464     15467     15470     15473     15465     15464     15467     15468
     15465     15464     15467     15469     15465     15464     15467     15470
     15466     15464     15467     15468     15466     15464     15467     15469
     15466     15464     15467     15470     15467     15470     15473     15474
     15467     15470     15473     15475     15467     15470     15473     15476
     15468     15467     15470     15471     15468     15467     15470     15472
     15468     15467     15470     15473     15469     15467     15470     15471
     15469     15467     15470     15472     15469     15467     15470     15473
     15470     15473     15476     15477     15470     15473     15476     15478
     15470     15473     15476     15479     15471     15470     15473     15474
     15471     15470     15473     15475     15471     15470     15473     15476
     15472     15470     15473     15474     15472     15470     15473     15475
     15472     15470     15473     15476     15473     15476     15479     15480
     15473     15476     15479     15481     15473     15476     15479     15482
     15474     15473     15476     15477     15474     15473     15476     15478
     15474     15473     15476     15479     15475     15473     15476     15477
     15475     15473     15476     15478     15475     15473     15476     15479
     15476     15479     15482     15483     15476     15479     15482     15484
     15476     15479     15482     15485     15477     15476     15479     15480
     15477     15476     15479     15481     15477     15476     15479     15482
     15478     15476     15479     15480     15478     15476     15479     15481
     15478     15476     15479     15482     15479     15482     15485     15486
     15479     15482     15485     15487     15479     15482     15485     15488
     15480     15479     15482     15483     15480     15479     15482     15484
     15480     15479     15482     15485     15481     15479     15482     15483
     15481     15479     15482     15484     15481     15479     15482     15485
     15482     15485     15488     15489     15482     15485     15488     15490
     15482     15485     15488     15491     15483     15482     15485     15486
     15483     15482     15485     15487     15483     15482     15485     15488
     15484     15482     15485     15486     15484     15482     15485     15487
     15484     15482     15485     15488     15485     15488     15491     15492
     15485     15488     15491     15493     15485     15488     15491     15494
     15486     15485     15488     15489     15486     15485     15488     15490
     15486     15485     15488     15491     15487     15485     15488     15489
     15487     15485     15488     15490     15487     15485     15488     15491
     15488     15491     15494     15495     15488     15491     15494     15496
     15488     15491     15494     15497     15489     15488     15491     15492
     15489     15488     15491     15493     15489     15488     15491     15494
     15490     15488     15491     15492     15490     15488     15491     15493
     15490     15488     15491     15494     15491     15494     15497     15498
     15491     15494     15497     15499     15491     15494     15497     15500
     15492     15491     15494     15495     15492     15491     15494     15496
     15492     15491     15494     15497     15493     15491     15494     15495
     15493     15491     15494     15496     15493     15491     15494     15497
     15494     15497     15500     15501     15494     15497     15500     15502
     15494     15497     15500     15503     15495     15494     15497     15498
     15495     15494     15497     15499     15495     15494     15497     15500
     15496     15494     15497     15498     15496     15494     15497     15499
     15496     15494     15497     15500     15498     15497     15500     15501
     15498     15497     15500     15502     15498     15497     15500     15503
     15499     15497     15500     15501     15499     15497     15500     15502
     15499     15497     15500     15503     15504     15508     15510     15511
     15504     15508     15510     15512     15504     15508     15513     15514
     15504     15508     15513     15515     15504     15508     15513     15519
     15505     15504     15508     15509     15505     15504     15508     15510
     15505     15504     15508     15513     15506     15504     15508     15509
     15506     15504     15508     15510     15506     15504     15508     15513
     15507     15504     15508     15509     15507     15504     15508     15510
     15507     15504     15508     15513     15508     15513     15519     15516
     15509     15508     15510     15511     15509     15508     15510     15512
     15509     15508     15513     15514     15509     15508     15513     15515
     15509     15508     15513     15519     15510     15508     15513     15514
     15510     15508     15513     15515     15510     15508     15513     15519
     15511     15510     15508     15513     15512     15510     15508     15513
     15513     15519     15516     15517     15513     15519     15516     15518
     15513     15519     15516     15520     15514     15513     15519     15516
     15515     15513     15519     15516     15516     15520     15521     15522
     15516     15520     15521     15523     15516     15520     15521     15524
     15517     15516     15520     15521     15518     15516     15520     15521
     15519     15516     15520     15521     15520     15521     15524     15525
     15520     15521     15524     15526     15520     15521     15524     15532
     15521     15524     15526     15527     15521     15524     15532     15533
     15521     15524     15532     15534     15521     15524     15532     15535
     15522     15521     15524     15525     15522     15521     15524     15526
     15522     15521     15524     15532     15523     15521     15524     15525
     15523     15521     15524     15526     15523     15521     15524     15532
     15524     15526     15527     15528     15524     15526     15527     15529
     15524     15532     15535     15536     15525     15524     15526     15527
     15525     15524     15532     15533     15525     15524     15532     15534
     15525     15524     15532     15535     15526     15524     15532     15533
     15526     15524     15532     15534     15526     15524     15532     15535
     15526     15527     15529     15530     15526     15527     15529     15531
     15526     15527     15529     15541     15527     15526     15524     15532
     15527     15529     15541     15542     15527     15529     15541     15543
     15527     15529     15541     15544     15528     15527     15529     15530
     15528     15527     15529     15531     15528     15527     15529     15541
     15529     15541     15544     15545     15529     15541     15544     15546
     15529     15541     15544     15547     15530     15529     15541     15542
     15530     15529     15541     15543     15530     15529     15541     15544
     15531     15529     15541     15542     15531     15529     15541     15543
     15531     15529     15541     15544     15532     15535     15536     15537
     15532     15535     15536     15538     15533     15532     15535     15536
     15534     15532     15535     15536     15535     15536     15538     15539
     15535     15536     15538     15540     15535     15536     15538     15588
     15536     15538     15588     15589     15536     15538     15588     15590
     15536     15538     15588     15591     15537     15536     15538     15539
     15537     15536     15538     15540     15537     15536     15538     15588
     15538     15588     15591     15592     15538     15588     15591     15593
     15538     15588     15591     15594     15539     15538     15588     15589
     15539     15538     15588     15590     15539     15538     15588     15591
     15540     15538     15588     15589     15540     15538     15588     15590
     15540     15538     15588     15591     15541     15544     15547     15548
     15541     15544     15547     15549     15541     15544     15547     15550
     15542     15541     15544     15545     15542     15541     15544     15546
     15542     15541     15544     15547     15543     15541     15544     15545
     15543     15541     15544     15546     15543     15541     15544     15547
     15544     15547     15550     15551     15544     15547     15550     15552
     15544     15547     15550     15553     15545     15544     15547     15548
     15545     15544     15547     15549     15545     15544     15547     15550
     15546     15544     15547     15548     15546     15544     15547     15549
     15546     15544     15547     15550     15547     15550     15553     15554
     15547     15550     15553     15555     15547     15550     15553     15556
     15548     15547     15550     15551     15548     15547     15550     15552
     15548     15547     15550     15553     15549     15547     15550     15551
     15549     15547     15550     15552     15549     15547     15550     15553
     15550     15553     15556     15557     15550     15553     15556     15558
     15550     15553     15556     15559     15551     15550     15553     15554
     15551     15550     15553     15555     15551     15550     15553     15556
     15552     15550     15553     15554     15552     15550     15553     15555
     15552     15550     15553     15556     15553     15556     15559     15560
     15553     15556     15559     15561     15554     15553     15556     15557
     15554     15553     15556     15558     15554     15553     15556     15559
     15555     15553     15556     15557     15555     15553     15556     15558
     15555     15553     15556     15559     15556     15559     15561     15562
     15556     15559     15561     15563     15557     15556     15559     15560
     15557     15556     15559     15561     15558     15556     15559     15560
     15558     15556     15559     15561     15559     15561     15563     15564
     15559     15561     15563     15565     15559     15561     15563     15566
     15560     15559     15561     15562     15560     15559     15561     15563
     15561     15563     15566     15567     15561     15563     15566     15568
     15561     15563     15566     15569     15562     15561     15563     15564
     15562     15561     15563     15565     15562     15561     15563     15566
     15563     15566     15569     15570     15563     15566     15569     15571
     15563     15566     15569     15572     15564     15563     15566     15567
     15564     15563     15566     15568     15564     15563     15566     15569
     15565     15563     15566     15567     15565     15563     15566     15568
     15565     15563     15566     15569     15566     15569     15572     15573
     15566     15569     15572     15574     15566     15569     15572     15575
     15567     15566     15569     15570     15567     15566     15569     15571
     15567     15566     15569     15572     15568     15566     15569     15570
     15568     15566     15569     15571     15568     15566     15569     15572
     15569     15572     15575     15576     15569     15572     15575     15577
     15569     15572     15575     15578     15570     15569     15572     15573
     15570     15569     15572     15574     15570     15569     15572     15575
     15571     15569     15572     15573     15571     15569     15572     15574
     15571     15569     15572     15575     15572     15575     15578     15579
     15572     15575     15578     15580     15572     15575     15578     15581
     15573     15572     15575     15576     15573     15572     15575     15577
     15573     15572     15575     15578     15574     15572     15575     15576
     15574     15572     15575     15577     15574     15572     15575     15578
     15575     15578     15581     15582     15575     15578     15581     15583
     15575     15578     15581     15584     15576     15575     15578     15579
     15576     15575     15578     15580     15576     15575     15578     15581
     15577     15575     15578     15579     15577     15575     15578     15580
     15577     15575     15578     15581     15578     15581     15584     15585
     15578     15581     15584     15586     15578     15581     15584     15587
     15579     15578     15581     15582     15579     15578     15581     15583
     15579     15578     15581     15584     15580     15578     15581     15582
     15580     15578     15581     15583     15580     15578     15581     15584
     15582     15581     15584     15585     15582     15581     15584     15586
     15582     15581     15584     15587     15583     15581     15584     15585
     15583     15581     15584     15586     15583     15581     15584     15587
     15588     15591     15594     15595     15588     15591     15594     15596
     15588     15591     15594     15597     15589     15588     15591     15592
     15589     15588     15591     15593     15589     15588     15591     15594
     15590     15588     15591     15592     15590     15588     15591     15593
     15590     15588     15591     15594     15591     15594     15597     15598
     15591     15594     15597     15599     15591     15594     15597     15600
     15592     15591     15594     15595     15592     15591     15594     15596
     15592     15591     15594     15597     15593     15591     15594     15595
     15593     15591     15594     15596     15593     15591     15594     15597
     15594     15597     15600     15601     15594     15597     15600     15602
     15594     15597     15600     15603     15595     15594     15597     15598
     15595     15594     15597     15599     15595     15594     15597     15600
     15596     15594     15597     15598     15596     15594     15597     15599
     15596     15594     15597     15600     15597     15600     15603     15604
     15597     15600     15603     15605     15597     15600     15603     15606
     15598     15597     15600     15601     15598     15597     15600     15602
     15598     15597     15600     15603     15599     15597     15600     15601
     15599     15597     15600     15602     15599     15597     15600     15603
     15600     15603     15606     15607     15600     15603     15606     15608
     15600     15603     15606     15609     15601     15600     15603     15604
     15601     15600     15603     15605     15601     15600     15603     15606
     15602     15600     15603     15604     15602     15600     15603     15605
     15602     15600     15603     15606     15603     15606     15609     15610
     15603     15606     15609     15611     15603     15606     15609     15612
     15604     15603     15606     15607     15604     15603     15606     15608
     15604     15603     15606     15609     15605     15603     15606     15607
     15605     15603     15606     15608     15605     15603     15606     15609
     15606     15609     15612     15613     15606     15609     15612     15614
     15606     15609     15612     15615     15607     15606     15609     15610
     15607     15606     15609     15611     15607     15606     15609     15612
     15608     15606     15609     15610     15608     15606     15609     15611
     15608     15606     15609     15612     15609     15612     15615     15616
     15609     15612     15615     15617     15609     15612     15615     15618
     15610     15609     15612     15613     15610     15609     15612     15614
     15610     15609     15612     15615     15611     15609     15612     15613
     15611     15609     15612     15614     15611     15609     15612     15615
     15612     15615     15618     15619     15612     15615     15618     15620
     15612     15615     15618     15621     15613     15612     15615     15616
     15613     15612     15615     15617     15613     15612     15615     15618
     15614     15612     15615     15616     15614     15612     15615     15617
     15614     15612     15615     15618     15615     15618     15621     15622
     15615     15618     15621     15623     15615     15618     15621     15624
     15616     15615     15618     15619     15616     15615     15618     15620
     15616     15615     15618     15621     15617     15615     15618     15619
     15617     15615     15618     15620     15617     15615     15618     15621
     15618     15621     15624     15625     15618     15621     15624     15626
     15618     15621     15624     15627     15619     15618     15621     15622
     15619     15618     15621     15623     15619     15618     15621     15624
     15620     15618     15621     15622     15620     15618     15621     15623
     15620     15618     15621     15624     15621     15624     15627     15628
     15621     15624     15627     15629     15621     15624     15627     15630
     15622     15621     15624     15625     15622     15621     15624     15626
     15622     15621     15624     15627     15623     15621     15624     15625
     15623     15621     15624     15626     15623     15621     15624     15627
     15625     15624     15627     15628     15625     15624     15627     15629
     15625     15624     15627     15630     15626     15624     15627     15628
     15626     15624     15627     15629     15626     15624     15627     15630
     15631     15632     15647     15648     15631     15632     15647     15649
     15631     15632     15647     15653     15632     15631     15635     15636
     15632     15631     15635     15637     15632     15631     15635     15638
     15632     15631     15639     15640     15632     15631     15639     15641
     15632     15631     15639     15642     15632     15631     15643     15644
     15632     15631     15643     15645     15632     15631     15643     15646
     15632     15647     15653     15650     15633     15632     15631     15635
     15633     15632     15631     15639     15633     15632     15631     15643
     15633     15632     15647     15648     15633     15632     15647     15649
     15633     15632     15647     15653     15634     15632     15631     15635
     15634     15632     15631     15639     15634     15632     15631     15643
     15634     15632     15647     15648     15634     15632     15647     15649
     15634     15632     15647     15653     15635     15631     15632     15647
     15635     15631     15639     15640     15635     15631     15639     15641
     15635     15631     15639     15642     15635     15631     15643     15644
     15635     15631     15643     15645     15635     15631     15643     15646
     15636     15635     15631     15639     15636     15635     15631     15643
     15637     15635     15631     15639     15637     15635     15631     15643
     15638     15635     15631     15639     15638     15635     15631     15643
     15639     15631     15632     15647     15639     15631     15643     15644
     15639     15631     15643     15645     15639     15631     15643     15646
     15640     15639     15631     15643     15641     15639     15631     15643
     15642     15639     15631     15643     15643     15631     15632     15647
     15647     15653     15650     15651     15647     15653     15650     15652
     15647     15653     15650     15654     15648     15647     15653     15650
     15649     15647     15653     15650     15650     15654     15655     15656
     15650     15654     15655     15657     15650     15654     15655     15658
     15651     15650     15654     15655     15652     15650     15654     15655
     15653     15650     15654     15655     15654     15655     15658     15659
     15654     15655     15658     15660     15654     15655     15658     15666
     15655     15658     15660     15661     15655     15658     15666     15667
     15655     15658     15666     15668     15655     15658     15666     15669
     15656     15655     15658     15659     15656     15655     15658     15660
     15656     15655     15658     15666     15657     15655     15658     15659
     15657     15655     15658     15660     15657     15655     15658     15666
     15658     15660     15661     15662     15658     15660     15661     15663
     15658     15666     15669     15670     15659     15658     15660     15661
     15659     15658     15666     15667     15659     15658     15666     15668
     15659     15658     15666     15669     15660     15658     15666     15667
     15660     15658     15666     15668     15660     15658     15666     15669
     15660     15661     15663     15664     15660     15661     15663     15665
     15660     15661     15663     15675     15661     15660     15658     15666
     15661     15663     15675     15676     15661     15663     15675     15677
     15661     15663     15675     15678     15662     15661     15663     15664
     15662     15661     15663     15665     15662     15661     15663     15675
     15663     15675     15678     15679     15663     15675     15678     15680
     15663     15675     15678     15681     15664     15663     15675     15676
     15664     15663     15675     15677     15664     15663     15675     15678
     15665     15663     15675     15676     15665     15663     15675     15677
     15665     15663     15675     15678     15666     15669     15670     15671
     15666     15669     15670     15672     15667     15666     15669     15670
     15668     15666     15669     15670     15669     15670     15672     15673
     15669     15670     15672     15674     15669     15670     15672     15722
     15670     15672     15722     15723     15670     15672     15722     15724
     15670     15672     15722     15725     15671     15670     15672     15673
     15671     15670     15672     15674     15671     15670     15672     15722
     15672     15722     15725     15726     15672     15722     15725     15727
     15672     15722     15725     15728     15673     15672     15722     15723
     15673     15672     15722     15724     15673     15672     15722     15725
     15674     15672     15722     15723     15674     15672     15722     15724
     15674     15672     15722     15725     15675     15678     15681     15682
     15675     15678     15681     15683     15675     15678     15681     15684
     15676     15675     15678     15679     15676     15675     15678     15680
     15676     15675     15678     15681     15677     15675     15678     15679
     15677     15675     15678     15680     15677     15675     15678     15681
     15678     15681     15684     15685     15678     15681     15684     15686
     15678     15681     15684     15687     15679     15678     15681     15682
     15679     15678     15681     15683     15679     15678     15681     15684
     15680     15678     15681     15682     15680     15678     15681     15683
     15680     15678     15681     15684     15681     15684     15687     15688
     15681     15684     15687     15689     15681     15684     15687     15690
     15682     15681     15684     15685     15682     15681     15684     15686
     15682     15681     15684     15687     15683     15681     15684     15685
     15683     15681     15684     15686     15683     15681     15684     15687
     15684     15687     15690     15691     15684     15687     15690     15692
     15684     15687     15690     15693     15685     15684     15687     15688
     15685     15684     15687     15689     15685     15684     15687     15690
     15686     15684     15687     15688     15686     15684     15687     15689
     15686     15684     15687     15690     15687     15690     15693     15694
     15687     15690     15693     15695     15688     15687     15690     15691
     15688     15687     15690     15692     15688     15687     15690     15693
     15689     15687     15690     15691     15689     15687     15690     15692
     15689     15687     15690     15693     15690     15693     15695     15696
     15690     15693     15695     15697     15691     15690     15693     15694
     15691     15690     15693     15695     15692     15690     15693     15694
     15692     15690     15693     15695     15693     15695     15697     15698
     15693     15695     15697     15699     15693     15695     15697     15700
     15694     15693     15695     15696     15694     15693     15695     15697
     15695     15697     15700     15701     15695     15697     15700     15702
     15695     15697     15700     15703     15696     15695     15697     15698
     15696     15695     15697     15699     15696     15695     15697     15700
     15697     15700     15703     15704     15697     15700     15703     15705
     15697     15700     15703     15706     15698     15697     15700     15701
     15698     15697     15700     15702     15698     15697     15700     15703
     15699     15697     15700     15701     15699     15697     15700     15702
     15699     15697     15700     15703     15700     15703     15706     15707
     15700     15703     15706     15708     15700     15703     15706     15709
     15701     15700     15703     15704     15701     15700     15703     15705
     15701     15700     15703     15706     15702     15700     15703     15704
     15702     15700     15703     15705     15702     15700     15703     15706
     15703     15706     15709     15710     15703     15706     15709     15711
     15703     15706     15709     15712     15704     15703     15706     15707
     15704     15703     15706     15708     15704     15703     15706     15709
     15705     15703     15706     15707     15705     15703     15706     15708
     15705     15703     15706     15709     15706     15709     15712     15713
     15706     15709     15712     15714     15706     15709     15712     15715
     15707     15706     15709     15710     15707     15706     15709     15711
     15707     15706     15709     15712     15708     15706     15709     15710
     15708     15706     15709     15711     15708     15706     15709     15712
     15709     15712     15715     15716     15709     15712     15715     15717
     15709     15712     15715     15718     15710     15709     15712     15713
     15710     15709     15712     15714     15710     15709     15712     15715
     15711     15709     15712     15713     15711     15709     15712     15714
     15711     15709     15712     15715     15712     15715     15718     15719
     15712     15715     15718     15720     15712     15715     15718     15721
     15713     15712     15715     15716     15713     15712     15715     15717
     15713     15712     15715     15718     15714     15712     15715     15716
     15714     15712     15715     15717     15714     15712     15715     15718
     15716     15715     15718     15719     15716     15715     15718     15720
     15716     15715     15718     15721     15717     15715     15718     15719
     15717     15715     15718     15720     15717     15715     15718     15721
     15722     15725     15728     15729     15722     15725     15728     15730
     15722     15725     15728     15731     15723     15722     15725     15726
     15723     15722     15725     15727     15723     15722     15725     15728
     15724     15722     15725     15726     15724     15722     15725     15727
     15724     15722     15725     15728     15725     15728     15731     15732
     15725     15728     15731     15733     15725     15728     15731     15734
     15726     15725     15728     15729     15726     15725     15728     15730
     15726     15725     15728     15731     15727     15725     15728     15729
     15727     15725     15728     15730     15727     15725     15728     15731
     15728     15731     15734     15735     15728     15731     15734     15736
     15728     15731     15734     15737     15729     15728     15731     15732
     15729     15728     15731     15733     15729     15728     15731     15734
     15730     15728     15731     15732     15730     15728     15731     15733
     15730     15728     15731     15734     15731     15734     15737     15738
     15731     15734     15737     15739     15731     15734     15737     15740
     15732     15731     15734     15735     15732     15731     15734     15736
     15732     15731     15734     15737     15733     15731     15734     15735
     15733     15731     15734     15736     15733     15731     15734     15737
     15734     15737     15740     15741     15734     15737     15740     15742
     15734     15737     15740     15743     15735     15734     15737     15738
     15735     15734     15737     15739     15735     15734     15737     15740
     15736     15734     15737     15738     15736     15734     15737     15739
     15736     15734     15737     15740     15737     15740     15743     15744
     15737     15740     15743     15745     15737     15740     15743     15746
     15738     15737     15740     15741     15738     15737     15740     15742
     15738     15737     15740     15743     15739     15737     15740     15741
     15739     15737     15740     15742     15739     15737     15740     15743
     15740     15743     15746     15747     15740     15743     15746     15748
     15740     15743     15746     15749     15741     15740     15743     15744
     15741     15740     15743     15745     15741     15740     15743     15746
     15742     15740     15743     15744     15742     15740     15743     15745
     15742     15740     15743     15746     15743     15746     15749     15750
     15743     15746     15749     15751     15743     15746     15749     15752
     15744     15743     15746     15747     15744     15743     15746     15748
     15744     15743     15746     15749     15745     15743     15746     15747
     15745     15743     15746     15748     15745     15743     15746     15749
     15746     15749     15752     15753     15746     15749     15752     15754
     15746     15749     15752     15755     15747     15746     15749     15750
     15747     15746     15749     15751     15747     15746     15749     15752
     15748     15746     15749     15750     15748     15746     15749     15751
     15748     15746     15749     15752     15749     15752     15755     15756
     15749     15752     15755     15757     15749     15752     15755     15758
     15750     15749     15752     15753     15750     15749     15752     15754
     15750     15749     15752     15755     15751     15749     15752     15753
     15751     15749     15752     15754     15751     15749     15752     15755
     15752     15755     15758     15759     15752     15755     15758     15760
     15752     15755     15758     15761     15753     15752     15755     15756
     15753     15752     15755     15757     15753     15752     15755     15758
     15754     15752     15755     15756     15754     15752     15755     15757
     15754     15752     15755     15758     15755     15758     15761     15762
     15755     15758     15761     15763     15755     15758     15761     15764
     15756     15755     15758     15759     15756     15755     15758     15760
     15756     15755     15758     15761     15757     15755     15758     15759
     15757     15755     15758     15760     15757     15755     15758     15761
     15759     15758     15761     15762     15759     15758     15761     15763
     15759     15758     15761     15764     15760     15758     15761     15762
     15760     15758     15761     15763     15760     15758     15761     15764
     15765     15766     15781     15782     15765     15766     15781     15783
     15765     15766     15781     15787     15766     15765     15769     15770
     15766     15765     15769     15771     15766     15765     15769     15772
     15766     15765     15773     15774     15766     15765     15773     15775
     15766     15765     15773     15776     15766     15765     15777     15778
     15766     15765     15777     15779     15766     15765     15777     15780
     15766     15781     15787     15784     15767     15766     15765     15769
     15767     15766     15765     15773     15767     15766     15765     15777
     15767     15766     15781     15782     15767     15766     15781     15783
     15767     15766     15781     15787     15768     15766     15765     15769
     15768     15766     15765     15773     15768     15766     15765     15777
     15768     15766     15781     15782     15768     15766     15781     15783
     15768     15766     15781     15787     15769     15765     15766     15781
     15769     15765     15773     15774     15769     15765     15773     15775
     15769     15765     15773     15776     15769     15765     15777     15778
     15769     15765     15777     15779     15769     15765     15777     15780
     15770     15769     15765     15773     15770     15769     15765     15777
     15771     15769     15765     15773     15771     15769     15765     15777
     15772     15769     15765     15773     15772     15769     15765     15777
     15773     15765     15766     15781     15773     15765     15777     15778
     15773     15765     15777     15779     15773     15765     15777     15780
     15774     15773     15765     15777     15775     15773     15765     15777
     15776     15773     15765     15777     15777     15765     15766     15781
     15781     15787     15784     15785     15781     15787     15784     15786
     15781     15787     15784     15788     15782     15781     15787     15784
     15783     15781     15787     15784     15784     15788     15789     15790
     15784     15788     15789     15791     15784     15788     15789     15792
     15785     15784     15788     15789     15786     15784     15788     15789
     15787     15784     15788     15789     15788     15789     15792     15793
     15788     15789     15792     15794     15788     15789     15792     15800
     15789     15792     15794     15795     15789     15792     15800     15801
     15789     15792     15800     15802     15789     15792     15800     15803
     15790     15789     15792     15793     15790     15789     15792     15794
     15790     15789     15792     15800     15791     15789     15792     15793
     15791     15789     15792     15794     15791     15789     15792     15800
     15792     15794     15795     15796     15792     15794     15795     15797
     15792     15800     15803     15804     15793     15792     15794     15795
     15793     15792     15800     15801     15793     15792     15800     15802
     15793     15792     15800     15803     15794     15792     15800     15801
     15794     15792     15800     15802     15794     15792     15800     15803
     15794     15795     15797     15798     15794     15795     15797     15799
     15794     15795     15797     15809     15795     15794     15792     15800
     15795     15797     15809     15810     15795     15797     15809     15811
     15795     15797     15809     15812     15796     15795     15797     15798
     15796     15795     15797     15799     15796     15795     15797     15809
     15797     15809     15812     15813     15797     15809     15812     15814
     15797     15809     15812     15815     15798     15797     15809     15810
     15798     15797     15809     15811     15798     15797     15809     15812
     15799     15797     15809     15810     15799     15797     15809     15811
     15799     15797     15809     15812     15800     15803     15804     15805
     15800     15803     15804     15806     15801     15800     15803     15804
     15802     15800     15803     15804     15803     15804     15806     15807
     15803     15804     15806     15808     15803     15804     15806     15856
     15804     15806     15856     15857     15804     15806     15856     15858
     15804     15806     15856     15859     15805     15804     15806     15807
     15805     15804     15806     15808     15805     15804     15806     15856
     15806     15856     15859     15860     15806     15856     15859     15861
     15806     15856     15859     15862     15807     15806     15856     15857
     15807     15806     15856     15858     15807     15806     15856     15859
     15808     15806     15856     15857     15808     15806     15856     15858
     15808     15806     15856     15859     15809     15812     15815     15816
     15809     15812     15815     15817     15809     15812     15815     15818
     15810     15809     15812     15813     15810     15809     15812     15814
     15810     15809     15812     15815     15811     15809     15812     15813
     15811     15809     15812     15814     15811     15809     15812     15815
     15812     15815     15818     15819     15812     15815     15818     15820
     15812     15815     15818     15821     15813     15812     15815     15816
     15813     15812     15815     15817     15813     15812     15815     15818
     15814     15812     15815     15816     15814     15812     15815     15817
     15814     15812     15815     15818     15815     15818     15821     15822
     15815     15818     15821     15823     15815     15818     15821     15824
     15816     15815     15818     15819     15816     15815     15818     15820
     15816     15815     15818     15821     15817     15815     15818     15819
     15817     15815     15818     15820     15817     15815     15818     15821
     15818     15821     15824     15825     15818     15821     15824     15826
     15818     15821     15824     15827     15819     15818     15821     15822
     15819     15818     15821     15823     15819     15818     15821     15824
     15820     15818     15821     15822     15820     15818     15821     15823
     15820     15818     15821     15824     15821     15824     15827     15828
     15821     15824     15827     15829     15822     15821     15824     15825
     15822     15821     15824     15826     15822     15821     15824     15827
     15823     15821     15824     15825     15823     15821     15824     15826
     15823     15821     15824     15827     15824     15827     15829     15830
     15824     15827     15829     15831     15825     15824     15827     15828
     15825     15824     15827     15829     15826     15824     15827     15828
     15826     15824     15827     15829     15827     15829     15831     15832
     15827     15829     15831     15833     15827     15829     15831     15834
     15828     15827     15829     15830     15828     15827     15829     15831
     15829     15831     15834     15835     15829     15831     15834     15836
     15829     15831     15834     15837     15830     15829     15831     15832
     15830     15829     15831     15833     15830     15829     15831     15834
     15831     15834     15837     15838     15831     15834     15837     15839
     15831     15834     15837     15840     15832     15831     15834     15835
     15832     15831     15834     15836     15832     15831     15834     15837
     15833     15831     15834     15835     15833     15831     15834     15836
     15833     15831     15834     15837     15834     15837     15840     15841
     15834     15837     15840     15842     15834     15837     15840     15843
     15835     15834     15837     15838     15835     15834     15837     15839
     15835     15834     15837     15840     15836     15834     15837     15838
     15836     15834     15837     15839     15836     15834     15837     15840
     15837     15840     15843     15844     15837     15840     15843     15845
     15837     15840     15843     15846     15838     15837     15840     15841
     15838     15837     15840     15842     15838     15837     15840     15843
     15839     15837     15840     15841     15839     15837     15840     15842
     15839     15837     15840     15843     15840     15843     15846     15847
     15840     15843     15846     15848     15840     15843     15846     15849
     15841     15840     15843     15844     15841     15840     15843     15845
     15841     15840     15843     15846     15842     15840     15843     15844
     15842     15840     15843     15845     15842     15840     15843     15846
     15843     15846     15849     15850     15843     15846     15849     15851
     15843     15846     15849     15852     15844     15843     15846     15847
     15844     15843     15846     15848     15844     15843     15846     15849
     15845     15843     15846     15847     15845     15843     15846     15848
     15845     15843     15846     15849     15846     15849     15852     15853
     15846     15849     15852     15854     15846     15849     15852     15855
     15847     15846     15849     15850     15847     15846     15849     15851
     15847     15846     15849     15852     15848     15846     15849     15850
     15848     15846     15849     15851     15848     15846     15849     15852
     15850     15849     15852     15853     15850     15849     15852     15854
     15850     15849     15852     15855     15851     15849     15852     15853
     15851     15849     15852     15854     15851     15849     15852     15855
     15856     15859     15862     15863     15856     15859     15862     15864
     15856     15859     15862     15865     15857     15856     15859     15860
     15857     15856     15859     15861     15857     15856     15859     15862
     15858     15856     15859     15860     15858     15856     15859     15861
     15858     15856     15859     15862     15859     15862     15865     15866
     15859     15862     15865     15867     15859     15862     15865     15868
     15860     15859     15862     15863     15860     15859     15862     15864
     15860     15859     15862     15865     15861     15859     15862     15863
     15861     15859     15862     15864     15861     15859     15862     15865
     15862     15865     15868     15869     15862     15865     15868     15870
     15862     15865     15868     15871     15863     15862     15865     15866
     15863     15862     15865     15867     15863     15862     15865     15868
     15864     15862     15865     15866     15864     15862     15865     15867
     15864     15862     15865     15868     15865     15868     15871     15872
     15865     15868     15871     15873     15865     15868     15871     15874
     15866     15865     15868     15869     15866     15865     15868     15870
     15866     15865     15868     15871     15867     15865     15868     15869
     15867     15865     15868     15870     15867     15865     15868     15871
     15868     15871     15874     15875     15868     15871     15874     15876
     15868     15871     15874     15877     15869     15868     15871     15872
     15869     15868     15871     15873     15869     15868     15871     15874
     15870     15868     15871     15872     15870     15868     15871     15873
     15870     15868     15871     15874     15871     15874     15877     15878
     15871     15874     15877     15879     15871     15874     15877     15880
     15872     15871     15874     15875     15872     15871     15874     15876
     15872     15871     15874     15877     15873     15871     15874     15875
     15873     15871     15874     15876     15873     15871     15874     15877
     15874     15877     15880     15881     15874     15877     15880     15882
     15874     15877     15880     15883     15875     15874     15877     15878
     15875     15874     15877     15879     15875     15874     15877     15880
     15876     15874     15877     15878     15876     15874     15877     15879
     15876     15874     15877     15880     15877     15880     15883     15884
     15877     15880     15883     15885     15877     15880     15883     15886
     15878     15877     15880     15881     15878     15877     15880     15882
     15878     15877     15880     15883     15879     15877     15880     15881
     15879     15877     15880     15882     15879     15877     15880     15883
     15880     15883     15886     15887     15880     15883     15886     15888
     15880     15883     15886     15889     15881     15880     15883     15884
     15881     15880     15883     15885     15881     15880     15883     15886
     15882     15880     15883     15884     15882     15880     15883     15885
     15882     15880     15883     15886     15883     15886     15889     15890
     15883     15886     15889     15891     15883     15886     15889     15892
     15884     15883     15886     15887     15884     15883     15886     15888
     15884     15883     15886     15889     15885     15883     15886     15887
     15885     15883     15886     15888     15885     15883     15886     15889
     15886     15889     15892     15893     15886     15889     15892     15894
     15886     15889     15892     15895     15887     15886     15889     15890
     15887     15886     15889     15891     15887     15886     15889     15892
     15888     15886     15889     15890     15888     15886     15889     15891
     15888     15886     15889     15892     15889     15892     15895     15896
     15889     15892     15895     15897     15889     15892     15895     15898
     15890     15889     15892     15893     15890     15889     15892     15894
     15890     15889     15892     15895     15891     15889     15892     15893
     15891     15889     15892     15894     15891     15889     15892     15895
     15893     15892     15895     15896     15893     15892     15895     15897
     15893     15892     15895     15898     15894     15892     15895     15896
     15894     15892     15895     15897     15894     15892     15895     15898
     15899     15900     15915     15916     15899     15900     15915     15917
     15899     15900     15915     15921     15900     15899     15903     15904
     15900     15899     15903     15905     15900     15899     15903     15906
     15900     15899     15907     15908     15900     15899     15907     15909
     15900     15899     15907     15910     15900     15899     15911     15912
     15900     15899     15911     15913     15900     15899     15911     15914
     15900     15915     15921     15918     15901     15900     15899     15903
     15901     15900     15899     15907     15901     15900     15899     15911
     15901     15900     15915     15916     15901     15900     15915     15917
     15901     15900     15915     15921     15902     15900     15899     15903
     15902     15900     15899     15907     15902     15900     15899     15911
     15902     15900     15915     15916     15902     15900     15915     15917
     15902     15900     15915     15921     15903     15899     15900     15915
     15903     15899     15907     15908     15903     15899     15907     15909
     15903     15899     15907     15910     15903     15899     15911     15912
     15903     15899     15911     15913     15903     15899     15911     15914
     15904     15903     15899     15907     15904     15903     15899     15911
     15905     15903     15899     15907     15905     15903     15899     15911
     15906     15903     15899     15907     15906     15903     15899     15911
     15907     15899     15900     15915     15907     15899     15911     15912
     15907     15899     15911     15913     15907     15899     15911     15914
     15908     15907     15899     15911     15909     15907     15899     15911
     15910     15907     15899     15911     15911     15899     15900     15915
     15915     15921     15918     15919     15915     15921     15918     15920
     15915     15921     15918     15922     15916     15915     15921     15918
     15917     15915     15921     15918     15918     15922     15923     15924
     15918     15922     15923     15925     15918     15922     15923     15926
     15919     15918     15922     15923     15920     15918     15922     15923
     15921     15918     15922     15923     15922     15923     15926     15927
     15922     15923     15926     15928     15922     15923     15926     15934
     15923     15926     15928     15929     15923     15926     15934     15935
     15923     15926     15934     15936     15923     15926     15934     15937
     15924     15923     15926     15927     15924     15923     15926     15928
     15924     15923     15926     15934     15925     15923     15926     15927
     15925     15923     15926     15928     15925     15923     15926     15934
     15926     15928     15929     15930     15926     15928     15929     15931
     15926     15934     15937     15938     15927     15926     15928     15929
     15927     15926     15934     15935     15927     15926     15934     15936
     15927     15926     15934     15937     15928     15926     15934     15935
     15928     15926     15934     15936     15928     15926     15934     15937
     15928     15929     15931     15932     15928     15929     15931     15933
     15928     15929     15931     15943     15929     15928     15926     15934
     15929     15931     15943     15944     15929     15931     15943     15945
     15929     15931     15943     15946     15930     15929     15931     15932
     15930     15929     15931     15933     15930     15929     15931     15943
     15931     15943     15946     15947     15931     15943     15946     15948
     15931     15943     15946     15949     15932     15931     15943     15944
     15932     15931     15943     15945     15932     15931     15943     15946
     15933     15931     15943     15944     15933     15931     15943     15945
     15933     15931     15943     15946     15934     15937     15938     15939
     15934     15937     15938     15940     15935     15934     15937     15938
     15936     15934     15937     15938     15937     15938     15940     15941
     15937     15938     15940     15942     15937     15938     15940     15990
     15938     15940     15990     15991     15938     15940     15990     15992
     15938     15940     15990     15993     15939     15938     15940     15941
     15939     15938     15940     15942     15939     15938     15940     15990
     15940     15990     15993     15994     15940     15990     15993     15995
     15940     15990     15993     15996     15941     15940     15990     15991
     15941     15940     15990     15992     15941     15940     15990     15993
     15942     15940     15990     15991     15942     15940     15990     15992
     15942     15940     15990     15993     15943     15946     15949     15950
     15943     15946     15949     15951     15943     15946     15949     15952
     15944     15943     15946     15947     15944     15943     15946     15948
     15944     15943     15946     15949     15945     15943     15946     15947
     15945     15943     15946     15948     15945     15943     15946     15949
     15946     15949     15952     15953     15946     15949     15952     15954
     15946     15949     15952     15955     15947     15946     15949     15950
     15947     15946     15949     15951     15947     15946     15949     15952
     15948     15946     15949     15950     15948     15946     15949     15951
     15948     15946     15949     15952     15949     15952     15955     15956
     15949     15952     15955     15957     15949     15952     15955     15958
     15950     15949     15952     15953     15950     15949     15952     15954
     15950     15949     15952     15955     15951     15949     15952     15953
     15951     15949     15952     15954     15951     15949     15952     15955
     15952     15955     15958     15959     15952     15955     15958     15960
     15952     15955     15958     15961     15953     15952     15955     15956
     15953     15952     15955     15957     15953     15952     15955     15958
     15954     15952     15955     15956     15954     15952     15955     15957
     15954     15952     15955     15958     15955     15958     15961     15962
     15955     15958     15961     15963     15956     15955     15958     15959
     15956     15955     15958     15960     15956     15955     15958     15961
     15957     15955     15958     15959     15957     15955     15958     15960
     15957     15955     15958     15961     15958     15961     15963     15964
     15958     15961     15963     15965     15959     15958     15961     15962
     15959     15958     15961     15963     15960     15958     15961     15962
     15960     15958     15961     15963     15961     15963     15965     15966
     15961     15963     15965     15967     15961     15963     15965     15968
     15962     15961     15963     15964     15962     15961     15963     15965
     15963     15965     15968     15969     15963     15965     15968     15970
     15963     15965     15968     15971     15964     15963     15965     15966
     15964     15963     15965     15967     15964     15963     15965     15968
     15965     15968     15971     15972     15965     15968     15971     15973
     15965     15968     15971     15974     15966     15965     15968     15969
     15966     15965     15968     15970     15966     15965     15968     15971
     15967     15965     15968     15969     15967     15965     15968     15970
     15967     15965     15968     15971     15968     15971     15974     15975
     15968     15971     15974     15976     15968     15971     15974     15977
     15969     15968     15971     15972     15969     15968     15971     15973
     15969     15968     15971     15974     15970     15968     15971     15972
     15970     15968     15971     15973     15970     15968     15971     15974
     15971     15974     15977     15978     15971     15974     15977     15979
     15971     15974     15977     15980     15972     15971     15974     15975
     15972     15971     15974     15976     15972     15971     15974     15977
     15973     15971     15974     15975     15973     15971     15974     15976
     15973     15971     15974     15977     15974     15977     15980     15981
     15974     15977     15980     15982     15974     15977     15980     15983
     15975     15974     15977     15978     15975     15974     15977     15979
     15975     15974     15977     15980     15976     15974     15977     15978
     15976     15974     15977     15979     15976     15974     15977     15980
     15977     15980     15983     15984     15977     15980     15983     15985
     15977     15980     15983     15986     15978     15977     15980     15981
     15978     15977     15980     15982     15978     15977     15980     15983
     15979     15977     15980     15981     15979     15977     15980     15982
     15979     15977     15980     15983     15980     15983     15986     15987
     15980     15983     15986     15988     15980     15983     15986     15989
     15981     15980     15983     15984     15981     15980     15983     15985
     15981     15980     15983     15986     15982     15980     15983     15984
     15982     15980     15983     15985     15982     15980     15983     15986
     15984     15983     15986     15987     15984     15983     15986     15988
     15984     15983     15986     15989     15985     15983     15986     15987
     15985     15983     15986     15988     15985     15983     15986     15989
     15990     15993     15996     15997     15990     15993     15996     15998
     15990     15993     15996     15999     15991     15990     15993     15994
     15991     15990     15993     15995     15991     15990     15993     15996
     15992     15990     15993     15994     15992     15990     15993     15995
     15992     15990     15993     15996     15993     15996     15999     16000
     15993     15996     15999     16001     15993     15996     15999     16002
     15994     15993     15996     15997     15994     15993     15996     15998
     15994     15993     15996     15999     15995     15993     15996     15997
     15995     15993     15996     15998     15995     15993     15996     15999
     15996     15999     16002     16003     15996     15999     16002     16004
     15996     15999     16002     16005     15997     15996     15999     16000
     15997     15996     15999     16001     15997     15996     15999     16002
     15998     15996     15999     16000     15998     15996     15999     16001
     15998     15996     15999     16002     15999     16002     16005     16006
     15999     16002     16005     16007     15999     16002     16005     16008
     16000     15999     16002     16003     16000     15999     16002     16004
     16000     15999     16002     16005     16001     15999     16002     16003
     16001     15999     16002     16004     16001     15999     16002     16005
     16002     16005     16008     16009     16002     16005     16008     16010
     16002     16005     16008     16011     16003     16002     16005     16006
     16003     16002     16005     16007     16003     16002     16005     16008
     16004     16002     16005     16006     16004     16002     16005     16007
     16004     16002     16005     16008     16005     16008     16011     16012
     16005     16008     16011     16013     16005     16008     16011     16014
     16006     16005     16008     16009     16006     16005     16008     16010
     16006     16005     16008     16011     16007     16005     16008     16009
     16007     16005     16008     16010     16007     16005     16008     16011
     16008     16011     16014     16015     16008     16011     16014     16016
     16008     16011     16014     16017     16009     16008     16011     16012
     16009     16008     16011     16013     16009     16008     16011     16014
     16010     16008     16011     16012     16010     16008     16011     16013
     16010     16008     16011     16014     16011     16014     16017     16018
     16011     16014     16017     16019     16011     16014     16017     16020
     16012     16011     16014     16015     16012     16011     16014     16016
     16012     16011     16014     16017     16013     16011     16014     16015
     16013     16011     16014     16016     16013     16011     16014     16017
     16014     16017     16020     16021     16014     16017     16020     16022
     16014     16017     16020     16023     16015     16014     16017     16018
     16015     16014     16017     16019     16015     16014     16017     16020
     16016     16014     16017     16018     16016     16014     16017     16019
     16016     16014     16017     16020     16017     16020     16023     16024
     16017     16020     16023     16025     16017     16020     16023     16026
     16018     16017     16020     16021     16018     16017     16020     16022
     16018     16017     16020     16023     16019     16017     16020     16021
     16019     16017     16020     16022     16019     16017     16020     16023
     16020     16023     16026     16027     16020     16023     16026     16028
     16020     16023     16026     16029     16021     16020     16023     16024
     16021     16020     16023     16025     16021     16020     16023     16026
     16022     16020     16023     16024     16022     16020     16023     16025
     16022     16020     16023     16026     16023     16026     16029     16030
     16023     16026     16029     16031     16023     16026     16029     16032
     16024     16023     16026     16027     16024     16023     16026     16028
     16024     16023     16026     16029     16025     16023     16026     16027
     16025     16023     16026     16028     16025     16023     16026     16029
     16027     16026     16029     16030     16027     16026     16029     16031
     16027     16026     16029     16032     16028     16026     16029     16030
     16028     16026     16029     16031     16028     16026     16029     16032
     16033     16034     16049     16050     16033     16034     16049     16051
     16033     16034     16049     16055     16034     16033     16037     16038
     16034     16033     16037     16039     16034     16033     16037     16040
     16034     16033     16041     16042     16034     16033     16041     16043
     16034     16033     16041     16044     16034     16033     16045     16046
     16034     16033     16045     16047     16034     16033     16045     16048
     16034     16049     16055     16052     16035     16034     16033     16037
     16035     16034     16033     16041     16035     16034     16033     16045
     16035     16034     16049     16050     16035     16034     16049     16051
     16035     16034     16049     16055     16036     16034     16033     16037
     16036     16034     16033     16041     16036     16034     16033     16045
     16036     16034     16049     16050     16036     16034     16049     16051
     16036     16034     16049     16055     16037     16033     16034     16049
     16037     16033     16041     16042     16037     16033     16041     16043
     16037     16033     16041     16044     16037     16033     16045     16046
     16037     16033     16045     16047     16037     16033     16045     16048
     16038     16037     16033     16041     16038     16037     16033     16045
     16039     16037     16033     16041     16039     16037     16033     16045
     16040     16037     16033     16041     16040     16037     16033     16045
     16041     16033     16034     16049     16041     16033     16045     16046
     16041     16033     16045     16047     16041     16033     16045     16048
     16042     16041     16033     16045     16043     16041     16033     16045
     16044     16041     16033     16045     16045     16033     16034     16049
     16049     16055     16052     16053     16049     16055     16052     16054
     16049     16055     16052     16056     16050     16049     16055     16052
     16051     16049     16055     16052     16052     16056     16057     16058
     16052     16056     16057     16059     16052     16056     16057     16060
     16053     16052     16056     16057     16054     16052     16056     16057
     16055     16052     16056     16057     16056     16057     16060     16061
     16056     16057     16060     16062     16056     16057     16060     16068
     16057     16060     16062     16063     16057     16060     16068     16069
     16057     16060     16068     16070     16057     16060     16068     16071
     16058     16057     16060     16061     16058     16057     16060     16062
     16058     16057     16060     16068     16059     16057     16060     16061
     16059     16057     16060     16062     16059     16057     16060     16068
     16060     16062     16063     16064     16060     16062     16063     16065
     16060     16068     16071     16072     16061     16060     16062     16063
     16061     16060     16068     16069     16061     16060     16068     16070
     16061     16060     16068     16071     16062     16060     16068     16069
     16062     16060     16068     16070     16062     16060     16068     16071
     16062     16063     16065     16066     16062     16063     16065     16067
     16062     16063     16065     16077     16063     16062     16060     16068
     16063     16065     16077     16078     16063     16065     16077     16079
     16063     16065     16077     16080     16064     16063     16065     16066
     16064     16063     16065     16067     16064     16063     16065     16077
     16065     16077     16080     16081     16065     16077     16080     16082
     16065     16077     16080     16083     16066     16065     16077     16078
     16066     16065     16077     16079     16066     16065     16077     16080
     16067     16065     16077     16078     16067     16065     16077     16079
     16067     16065     16077     16080     16068     16071     16072     16073
     16068     16071     16072     16074     16069     16068     16071     16072
     16070     16068     16071     16072     16071     16072     16074     16075
     16071     16072     16074     16076     16071     16072     16074     16124
     16072     16074     16124     16125     16072     16074     16124     16126
     16072     16074     16124     16127     16073     16072     16074     16075
     16073     16072     16074     16076     16073     16072     16074     16124
     16074     16124     16127     16128     16074     16124     16127     16129
     16074     16124     16127     16130     16075     16074     16124     16125
     16075     16074     16124     16126     16075     16074     16124     16127
     16076     16074     16124     16125     16076     16074     16124     16126
     16076     16074     16124     16127     16077     16080     16083     16084
     16077     16080     16083     16085     16077     16080     16083     16086
     16078     16077     16080     16081     16078     16077     16080     16082
     16078     16077     16080     16083     16079     16077     16080     16081
     16079     16077     16080     16082     16079     16077     16080     16083
     16080     16083     16086     16087     16080     16083     16086     16088
     16080     16083     16086     16089     16081     16080     16083     16084
     16081     16080     16083     16085     16081     16080     16083     16086
     16082     16080     16083     16084     16082     16080     16083     16085
     16082     16080     16083     16086     16083     16086     16089     16090
     16083     16086     16089     16091     16083     16086     16089     16092
     16084     16083     16086     16087     16084     16083     16086     16088
     16084     16083     16086     16089     16085     16083     16086     16087
     16085     16083     16086     16088     16085     16083     16086     16089
     16086     16089     16092     16093     16086     16089     16092     16094
     16086     16089     16092     16095     16087     16086     16089     16090
     16087     16086     16089     16091     16087     16086     16089     16092
     16088     16086     16089     16090     16088     16086     16089     16091
     16088     16086     16089     16092     16089     16092     16095     16096
     16089     16092     16095     16097     16090     16089     16092     16093
     16090     16089     16092     16094     16090     16089     16092     16095
     16091     16089     16092     16093     16091     16089     16092     16094
     16091     16089     16092     16095     16092     16095     16097     16098
     16092     16095     16097     16099     16093     16092     16095     16096
     16093     16092     16095     16097     16094     16092     16095     16096
     16094     16092     16095     16097     16095     16097     16099     16100
     16095     16097     16099     16101     16095     16097     16099     16102
     16096     16095     16097     16098     16096     16095     16097     16099
     16097     16099     16102     16103     16097     16099     16102     16104
     16097     16099     16102     16105     16098     16097     16099     16100
     16098     16097     16099     16101     16098     16097     16099     16102
     16099     16102     16105     16106     16099     16102     16105     16107
     16099     16102     16105     16108     16100     16099     16102     16103
     16100     16099     16102     16104     16100     16099     16102     16105
     16101     16099     16102     16103     16101     16099     16102     16104
     16101     16099     16102     16105     16102     16105     16108     16109
     16102     16105     16108     16110     16102     16105     16108     16111
     16103     16102     16105     16106     16103     16102     16105     16107
     16103     16102     16105     16108     16104     16102     16105     16106
     16104     16102     16105     16107     16104     16102     16105     16108
     16105     16108     16111     16112     16105     16108     16111     16113
     16105     16108     16111     16114     16106     16105     16108     16109
     16106     16105     16108     16110     16106     16105     16108     16111
     16107     16105     16108     16109     16107     16105     16108     16110
     16107     16105     16108     16111     16108     16111     16114     16115
     16108     16111     16114     16116     16108     16111     16114     16117
     16109     16108     16111     16112     16109     16108     16111     16113
     16109     16108     16111     16114     16110     16108     16111     16112
     16110     16108     16111     16113     16110     16108     16111     16114
     16111     16114     16117     16118     16111     16114     16117     16119
     16111     16114     16117     16120     16112     16111     16114     16115
     16112     16111     16114     16116     16112     16111     16114     16117
     16113     16111     16114     16115     16113     16111     16114     16116
     16113     16111     16114     16117     16114     16117     16120     16121
     16114     16117     16120     16122     16114     16117     16120     16123
     16115     16114     16117     16118     16115     16114     16117     16119
     16115     16114     16117     16120     16116     16114     16117     16118
     16116     16114     16117     16119     16116     16114     16117     16120
     16118     16117     16120     16121     16118     16117     16120     16122
     16118     16117     16120     16123     16119     16117     16120     16121
     16119     16117     16120     16122     16119     16117     16120     16123
     16124     16127     16130     16131     16124     16127     16130     16132
     16124     16127     16130     16133     16125     16124     16127     16128
     16125     16124     16127     16129     16125     16124     16127     16130
     16126     16124     16127     16128     16126     16124     16127     16129
     16126     16124     16127     16130     16127     16130     16133     16134
     16127     16130     16133     16135     16127     16130     16133     16136
     16128     16127     16130     16131     16128     16127     16130     16132
     16128     16127     16130     16133     16129     16127     16130     16131
     16129     16127     16130     16132     16129     16127     16130     16133
     16130     16133     16136     16137     16130     16133     16136     16138
     16130     16133     16136     16139     16131     16130     16133     16134
     16131     16130     16133     16135     16131     16130     16133     16136
     16132     16130     16133     16134     16132     16130     16133     16135
     16132     16130     16133     16136     16133     16136     16139     16140
     16133     16136     16139     16141     16133     16136     16139     16142
     16134     16133     16136     16137     16134     16133     16136     16138
     16134     16133     16136     16139     16135     16133     16136     16137
     16135     16133     16136     16138     16135     16133     16136     16139
     16136     16139     16142     16143     16136     16139     16142     16144
     16136     16139     16142     16145     16137     16136     16139     16140
     16137     16136     16139     16141     16137     16136     16139     16142
     16138     16136     16139     16140     16138     16136     16139     16141
     16138     16136     16139     16142     16139     16142     16145     16146
     16139     16142     16145     16147     16139     16142     16145     16148
     16140     16139     16142     16143     16140     16139     16142     16144
     16140     16139     16142     16145     16141     16139     16142     16143
     16141     16139     16142     16144     16141     16139     16142     16145
     16142     16145     16148     16149     16142     16145     16148     16150
     16142     16145     16148     16151     16143     16142     16145     16146
     16143     16142     16145     16147     16143     16142     16145     16148
     16144     16142     16145     16146     16144     16142     16145     16147
     16144     16142     16145     16148     16145     16148     16151     16152
     16145     16148     16151     16153     16145     16148     16151     16154
     16146     16145     16148     16149     16146     16145     16148     16150
     16146     16145     16148     16151     16147     16145     16148     16149
     16147     16145     16148     16150     16147     16145     16148     16151
     16148     16151     16154     16155     16148     16151     16154     16156
     16148     16151     16154     16157     16149     16148     16151     16152
     16149     16148     16151     16153     16149     16148     16151     16154
     16150     16148     16151     16152     16150     16148     16151     16153
     16150     16148     16151     16154     16151     16154     16157     16158
     16151     16154     16157     16159     16151     16154     16157     16160
     16152     16151     16154     16155     16152     16151     16154     16156
     16152     16151     16154     16157     16153     16151     16154     16155
     16153     16151     16154     16156     16153     16151     16154     16157
     16154     16157     16160     16161     16154     16157     16160     16162
     16154     16157     16160     16163     16155     16154     16157     16158
     16155     16154     16157     16159     16155     16154     16157     16160
     16156     16154     16157     16158     16156     16154     16157     16159
     16156     16154     16157     16160     16157     16160     16163     16164
     16157     16160     16163     16165     16157     16160     16163     16166
     16158     16157     16160     16161     16158     16157     16160     16162
     16158     16157     16160     16163     16159     16157     16160     16161
     16159     16157     16160     16162     16159     16157     16160     16163
     16161     16160     16163     16164     16161     16160     16163     16165
     16161     16160     16163     16166     16162     16160     16163     16164
     16162     16160     16163     16165     16162     16160     16163     16166
     16167     16168     16183     16184     16167     16168     16183     16185
     16167     16168     16183     16189     16168     16167     16171     16172
     16168     16167     16171     16173     16168     16167     16171     16174
     16168     16167     16175     16176     16168     16167     16175     16177
     16168     16167     16175     16178     16168     16167     16179     16180
     16168     16167     16179     16181     16168     16167     16179     16182
     16168     16183     16189     16186     16169     16168     16167     16171
     16169     16168     16167     16175     16169     16168     16167     16179
     16169     16168     16183     16184     16169     16168     16183     16185
     16169     16168     16183     16189     16170     16168     16167     16171
     16170     16168     16167     16175     16170     16168     16167     16179
     16170     16168     16183     16184     16170     16168     16183     16185
     16170     16168     16183     16189     16171     16167     16168     16183
     16171     16167     16175     16176     16171     16167     16175     16177
     16171     16167     16175     16178     16171     16167     16179     16180
     16171     16167     16179     16181     16171     16167     16179     16182
     16172     16171     16167     16175     16172     16171     16167     16179
     16173     16171     16167     16175     16173     16171     16167     16179
     16174     16171     16167     16175     16174     16171     16167     16179
     16175     16167     16168     16183     16175     16167     16179     16180
     16175     16167     16179     16181     16175     16167     16179     16182
     16176     16175     16167     16179     16177     16175     16167     16179
     16178     16175     16167     16179     16179     16167     16168     16183
     16183     16189     16186     16187     16183     16189     16186     16188
     16183     16189     16186     16190     16184     16183     16189     16186
     16185     16183     16189     16186     16186     16190     16191     16192
     16186     16190     16191     16193     16186     16190     16191     16194
     16187     16186     16190     16191     16188     16186     16190     16191
     16189     16186     16190     16191     16190     16191     16194     16195
     16190     16191     16194     16196     16190     16191     16194     16202
     16191     16194     16196     16197     16191     16194     16202     16203
     16191     16194     16202     16204     16191     16194     16202     16205
     16192     16191     16194     16195     16192     16191     16194     16196
     16192     16191     16194     16202     16193     16191     16194     16195
     16193     16191     16194     16196     16193     16191     16194     16202
     16194     16196     16197     16198     16194     16196     16197     16199
     16194     16202     16205     16206     16195     16194     16196     16197
     16195     16194     16202     16203     16195     16194     16202     16204
     16195     16194     16202     16205     16196     16194     16202     16203
     16196     16194     16202     16204     16196     16194     16202     16205
     16196     16197     16199     16200     16196     16197     16199     16201
     16196     16197     16199     16211     16197     16196     16194     16202
     16197     16199     16211     16212     16197     16199     16211     16213
     16197     16199     16211     16214     16198     16197     16199     16200
     16198     16197     16199     16201     16198     16197     16199     16211
     16199     16211     16214     16215     16199     16211     16214     16216
     16199     16211     16214     16217     16200     16199     16211     16212
     16200     16199     16211     16213     16200     16199     16211     16214
     16201     16199     16211     16212     16201     16199     16211     16213
     16201     16199     16211     16214     16202     16205     16206     16207
     16202     16205     16206     16208     16203     16202     16205     16206
     16204     16202     16205     16206     16205     16206     16208     16209
     16205     16206     16208     16210     16205     16206     16208     16258
     16206     16208     16258     16259     16206     16208     16258     16260
     16206     16208     16258     16261     16207     16206     16208     16209
     16207     16206     16208     16210     16207     16206     16208     16258
     16208     16258     16261     16262     16208     16258     16261     16263
     16208     16258     16261     16264     16209     16208     16258     16259
     16209     16208     16258     16260     16209     16208     16258     16261
     16210     16208     16258     16259     16210     16208     16258     16260
     16210     16208     16258     16261     16211     16214     16217     16218
     16211     16214     16217     16219     16211     16214     16217     16220
     16212     16211     16214     16215     16212     16211     16214     16216
     16212     16211     16214     16217     16213     16211     16214     16215
     16213     16211     16214     16216     16213     16211     16214     16217
     16214     16217     16220     16221     16214     16217     16220     16222
     16214     16217     16220     16223     16215     16214     16217     16218
     16215     16214     16217     16219     16215     16214     16217     16220
     16216     16214     16217     16218     16216     16214     16217     16219
     16216     16214     16217     16220     16217     16220     16223     16224
     16217     16220     16223     16225     16217     16220     16223     16226
     16218     16217     16220     16221     16218     16217     16220     16222
     16218     16217     16220     16223     16219     16217     16220     16221
     16219     16217     16220     16222     16219     16217     16220     16223
     16220     16223     16226     16227     16220     16223     16226     16228
     16220     16223     16226     16229     16221     16220     16223     16224
     16221     16220     16223     16225     16221     16220     16223     16226
     16222     16220     16223     16224     16222     16220     16223     16225
     16222     16220     16223     16226     16223     16226     16229     16230
     16223     16226     16229     16231     16224     16223     16226     16227
     16224     16223     16226     16228     16224     16223     16226     16229
     16225     16223     16226     16227     16225     16223     16226     16228
     16225     16223     16226     16229     16226     16229     16231     16232
     16226     16229     16231     16233     16227     16226     16229     16230
     16227     16226     16229     16231     16228     16226     16229     16230
     16228     16226     16229     16231     16229     16231     16233     16234
     16229     16231     16233     16235     16229     16231     16233     16236
     16230     16229     16231     16232     16230     16229     16231     16233
     16231     16233     16236     16237     16231     16233     16236     16238
     16231     16233     16236     16239     16232     16231     16233     16234
     16232     16231     16233     16235     16232     16231     16233     16236
     16233     16236     16239     16240     16233     16236     16239     16241
     16233     16236     16239     16242     16234     16233     16236     16237
     16234     16233     16236     16238     16234     16233     16236     16239
     16235     16233     16236     16237     16235     16233     16236     16238
     16235     16233     16236     16239     16236     16239     16242     16243
     16236     16239     16242     16244     16236     16239     16242     16245
     16237     16236     16239     16240     16237     16236     16239     16241
     16237     16236     16239     16242     16238     16236     16239     16240
     16238     16236     16239     16241     16238     16236     16239     16242
     16239     16242     16245     16246     16239     16242     16245     16247
     16239     16242     16245     16248     16240     16239     16242     16243
     16240     16239     16242     16244     16240     16239     16242     16245
     16241     16239     16242     16243     16241     16239     16242     16244
     16241     16239     16242     16245     16242     16245     16248     16249
     16242     16245     16248     16250     16242     16245     16248     16251
     16243     16242     16245     16246     16243     16242     16245     16247
     16243     16242     16245     16248     16244     16242     16245     16246
     16244     16242     16245     16247     16244     16242     16245     16248
     16245     16248     16251     16252     16245     16248     16251     16253
     16245     16248     16251     16254     16246     16245     16248     16249
     16246     16245     16248     16250     16246     16245     16248     16251
     16247     16245     16248     16249     16247     16245     16248     16250
     16247     16245     16248     16251     16248     16251     16254     16255
     16248     16251     16254     16256     16248     16251     16254     16257
     16249     16248     16251     16252     16249     16248     16251     16253
     16249     16248     16251     16254     16250     16248     16251     16252
     16250     16248     16251     16253     16250     16248     16251     16254
     16252     16251     16254     16255     16252     16251     16254     16256
     16252     16251     16254     16257     16253     16251     16254     16255
     16253     16251     16254     16256     16253     16251     16254     16257
     16258     16261     16264     16265     16258     16261     16264     16266
     16258     16261     16264     16267     16259     16258     16261     16262
     16259     16258     16261     16263     16259     16258     16261     16264
     16260     16258     16261     16262     16260     16258     16261     16263
     16260     16258     16261     16264     16261     16264     16267     16268
     16261     16264     16267     16269     16261     16264     16267     16270
     16262     16261     16264     16265     16262     16261     16264     16266
     16262     16261     16264     16267     16263     16261     16264     16265
     16263     16261     16264     16266     16263     16261     16264     16267
     16264     16267     16270     16271     16264     16267     16270     16272
     16264     16267     16270     16273     16265     16264     16267     16268
     16265     16264     16267     16269     16265     16264     16267     16270
     16266     16264     16267     16268     16266     16264     16267     16269
     16266     16264     16267     16270     16267     16270     16273     16274
     16267     16270     16273     16275     16267     16270     16273     16276
     16268     16267     16270     16271     16268     16267     16270     16272
     16268     16267     16270     16273     16269     16267     16270     16271
     16269     16267     16270     16272     16269     16267     16270     16273
     16270     16273     16276     16277     16270     16273     16276     16278
     16270     16273     16276     16279     16271     16270     16273     16274
     16271     16270     16273     16275     16271     16270     16273     16276
     16272     16270     16273     16274     16272     16270     16273     16275
     16272     16270     16273     16276     16273     16276     16279     16280
     16273     16276     16279     16281     16273     16276     16279     16282
     16274     16273     16276     16277     16274     16273     16276     16278
     16274     16273     16276     16279     16275     16273     16276     16277
     16275     16273     16276     16278     16275     16273     16276     16279
     16276     16279     16282     16283     16276     16279     16282     16284
     16276     16279     16282     16285     16277     16276     16279     16280
     16277     16276     16279     16281     16277     16276     16279     16282
     16278     16276     16279     16280     16278     16276     16279     16281
     16278     16276     16279     16282     16279     16282     16285     16286
     16279     16282     16285     16287     16279     16282     16285     16288
     16280     16279     16282     16283     16280     16279     16282     16284
     16280     16279     16282     16285     16281     16279     16282     16283
     16281     16279     16282     16284     16281     16279     16282     16285
     16282     16285     16288     16289     16282     16285     16288     16290
     16282     16285     16288     16291     16283     16282     16285     16286
     16283     16282     16285     16287     16283     16282     16285     16288
     16284     16282     16285     16286     16284     16282     16285     16287
     16284     16282     16285     16288     16285     16288     16291     16292
     16285     16288     16291     16293     16285     16288     16291     16294
     16286     16285     16288     16289     16286     16285     16288     16290
     16286     16285     16288     16291     16287     16285     16288     16289
     16287     16285     16288     16290     16287     16285     16288     16291
     16288     16291     16294     16295     16288     16291     16294     16296
     16288     16291     16294     16297     16289     16288     16291     16292
     16289     16288     16291     16293     16289     16288     16291     16294
     16290     16288     16291     16292     16290     16288     16291     16293
     16290     16288     16291     16294     16291     16294     16297     16298
     16291     16294     16297     16299     16291     16294     16297     16300
     16292     16291     16294     16295     16292     16291     16294     16296
     16292     16291     16294     16297     16293     16291     16294     16295
     16293     16291     16294     16296     16293     16291     16294     16297
     16295     16294     16297     16298     16295     16294     16297     16299
     16295     16294     16297     16300     16296     16294     16297     16298
     16296     16294     16297     16299     16296     16294     16297     16300
     16301     16302     16317     16318     16301     16302     16317     16319
     16301     16302     16317     16323     16302     16301     16305     16306
     16302     16301     16305     16307     16302     16301     16305     16308
     16302     16301     16309     16310     16302     16301     16309     16311
     16302     16301     16309     16312     16302     16301     16313     16314
     16302     16301     16313     16315     16302     16301     16313     16316
     16302     16317     16323     16320     16303     16302     16301     16305
     16303     16302     16301     16309     16303     16302     16301     16313
     16303     16302     16317     16318     16303     16302     16317     16319
     16303     16302     16317     16323     16304     16302     16301     16305
     16304     16302     16301     16309     16304     16302     16301     16313
     16304     16302     16317     16318     16304     16302     16317     16319
     16304     16302     16317     16323     16305     16301     16302     16317
     16305     16301     16309     16310     16305     16301     16309     16311
     16305     16301     16309     16312     16305     16301     16313     16314
     16305     16301     16313     16315     16305     16301     16313     16316
     16306     16305     16301     16309     16306     16305     16301     16313
     16307     16305     16301     16309     16307     16305     16301     16313
     16308     16305     16301     16309     16308     16305     16301     16313
     16309     16301     16302     16317     16309     16301     16313     16314
     16309     16301     16313     16315     16309     16301     16313     16316
     16310     16309     16301     16313     16311     16309     16301     16313
     16312     16309     16301     16313     16313     16301     16302     16317
     16317     16323     16320     16321     16317     16323     16320     16322
     16317     16323     16320     16324     16318     16317     16323     16320
     16319     16317     16323     16320     16320     16324     16325     16326
     16320     16324     16325     16327     16320     16324     16325     16328
     16321     16320     16324     16325     16322     16320     16324     16325
     16323     16320     16324     16325     16324     16325     16328     16329
     16324     16325     16328     16330     16324     16325     16328     16336
     16325     16328     16330     16331     16325     16328     16336     16337
     16325     16328     16336     16338     16325     16328     16336     16339
     16326     16325     16328     16329     16326     16325     16328     16330
     16326     16325     16328     16336     16327     16325     16328     16329
     16327     16325     16328     16330     16327     16325     16328     16336
     16328     16330     16331     16332     16328     16330     16331     16333
     16328     16336     16339     16340     16329     16328     16330     16331
     16329     16328     16336     16337     16329     16328     16336     16338
     16329     16328     16336     16339     16330     16328     16336     16337
     16330     16328     16336     16338     16330     16328     16336     16339
     16330     16331     16333     16334     16330     16331     16333     16335
     16330     16331     16333     16345     16331     16330     16328     16336
     16331     16333     16345     16346     16331     16333     16345     16347
     16331     16333     16345     16348     16332     16331     16333     16334
     16332     16331     16333     16335     16332     16331     16333     16345
     16333     16345     16348     16349     16333     16345     16348     16350
     16333     16345     16348     16351     16334     16333     16345     16346
     16334     16333     16345     16347     16334     16333     16345     16348
     16335     16333     16345     16346     16335     16333     16345     16347
     16335     16333     16345     16348     16336     16339     16340     16341
     16336     16339     16340     16342     16337     16336     16339     16340
     16338     16336     16339     16340     16339     16340     16342     16343
     16339     16340     16342     16344     16339     16340     16342     16392
     16340     16342     16392     16393     16340     16342     16392     16394
     16340     16342     16392     16395     16341     16340     16342     16343
     16341     16340     16342     16344     16341     16340     16342     16392
     16342     16392     16395     16396     16342     16392     16395     16397
     16342     16392     16395     16398     16343     16342     16392     16393
     16343     16342     16392     16394     16343     16342     16392     16395
     16344     16342     16392     16393     16344     16342     16392     16394
     16344     16342     16392     16395     16345     16348     16351     16352
     16345     16348     16351     16353     16345     16348     16351     16354
     16346     16345     16348     16349     16346     16345     16348     16350
     16346     16345     16348     16351     16347     16345     16348     16349
     16347     16345     16348     16350     16347     16345     16348     16351
     16348     16351     16354     16355     16348     16351     16354     16356
     16348     16351     16354     16357     16349     16348     16351     16352
     16349     16348     16351     16353     16349     16348     16351     16354
     16350     16348     16351     16352     16350     16348     16351     16353
     16350     16348     16351     16354     16351     16354     16357     16358
     16351     16354     16357     16359     16351     16354     16357     16360
     16352     16351     16354     16355     16352     16351     16354     16356
     16352     16351     16354     16357     16353     16351     16354     16355
     16353     16351     16354     16356     16353     16351     16354     16357
     16354     16357     16360     16361     16354     16357     16360     16362
     16354     16357     16360     16363     16355     16354     16357     16358
     16355     16354     16357     16359     16355     16354     16357     16360
     16356     16354     16357     16358     16356     16354     16357     16359
     16356     16354     16357     16360     16357     16360     16363     16364
     16357     16360     16363     16365     16358     16357     16360     16361
     16358     16357     16360     16362     16358     16357     16360     16363
     16359     16357     16360     16361     16359     16357     16360     16362
     16359     16357     16360     16363     16360     16363     16365     16366
     16360     16363     16365     16367     16361     16360     16363     16364
     16361     16360     16363     16365     16362     16360     16363     16364
     16362     16360     16363     16365     16363     16365     16367     16368
     16363     16365     16367     16369     16363     16365     16367     16370
     16364     16363     16365     16366     16364     16363     16365     16367
     16365     16367     16370     16371     16365     16367     16370     16372
     16365     16367     16370     16373     16366     16365     16367     16368
     16366     16365     16367     16369     16366     16365     16367     16370
     16367     16370     16373     16374     16367     16370     16373     16375
     16367     16370     16373     16376     16368     16367     16370     16371
     16368     16367     16370     16372     16368     16367     16370     16373
     16369     16367     16370     16371     16369     16367     16370     16372
     16369     16367     16370     16373     16370     16373     16376     16377
     16370     16373     16376     16378     16370     16373     16376     16379
     16371     16370     16373     16374     16371     16370     16373     16375
     16371     16370     16373     16376     16372     16370     16373     16374
     16372     16370     16373     16375     16372     16370     16373     16376
     16373     16376     16379     16380     16373     16376     16379     16381
     16373     16376     16379     16382     16374     16373     16376     16377
     16374     16373     16376     16378     16374     16373     16376     16379
     16375     16373     16376     16377     16375     16373     16376     16378
     16375     16373     16376     16379     16376     16379     16382     16383
     16376     16379     16382     16384     16376     16379     16382     16385
     16377     16376     16379     16380     16377     16376     16379     16381
     16377     16376     16379     16382     16378     16376     16379     16380
     16378     16376     16379     16381     16378     16376     16379     16382
     16379     16382     16385     16386     16379     16382     16385     16387
     16379     16382     16385     16388     16380     16379     16382     16383
     16380     16379     16382     16384     16380     16379     16382     16385
     16381     16379     16382     16383     16381     16379     16382     16384
     16381     16379     16382     16385     16382     16385     16388     16389
     16382     16385     16388     16390     16382     16385     16388     16391
     16383     16382     16385     16386     16383     16382     16385     16387
     16383     16382     16385     16388     16384     16382     16385     16386
     16384     16382     16385     16387     16384     16382     16385     16388
     16386     16385     16388     16389     16386     16385     16388     16390
     16386     16385     16388     16391     16387     16385     16388     16389
     16387     16385     16388     16390     16387     16385     16388     16391
     16392     16395     16398     16399     16392     16395     16398     16400
     16392     16395     16398     16401     16393     16392     16395     16396
     16393     16392     16395     16397     16393     16392     16395     16398
     16394     16392     16395     16396     16394     16392     16395     16397
     16394     16392     16395     16398     16395     16398     16401     16402
     16395     16398     16401     16403     16395     16398     16401     16404
     16396     16395     16398     16399     16396     16395     16398     16400
     16396     16395     16398     16401     16397     16395     16398     16399
     16397     16395     16398     16400     16397     16395     16398     16401
     16398     16401     16404     16405     16398     16401     16404     16406
     16398     16401     16404     16407     16399     16398     16401     16402
     16399     16398     16401     16403     16399     16398     16401     16404
     16400     16398     16401     16402     16400     16398     16401     16403
     16400     16398     16401     16404     16401     16404     16407     16408
     16401     16404     16407     16409     16401     16404     16407     16410
     16402     16401     16404     16405     16402     16401     16404     16406
     16402     16401     16404     16407     16403     16401     16404     16405
     16403     16401     16404     16406     16403     16401     16404     16407
     16404     16407     16410     16411     16404     16407     16410     16412
     16404     16407     16410     16413     16405     16404     16407     16408
     16405     16404     16407     16409     16405     16404     16407     16410
     16406     16404     16407     16408     16406     16404     16407     16409
     16406     16404     16407     16410     16407     16410     16413     16414
     16407     16410     16413     16415     16407     16410     16413     16416
     16408     16407     16410     16411     16408     16407     16410     16412
     16408     16407     16410     16413     16409     16407     16410     16411
     16409     16407     16410     16412     16409     16407     16410     16413
     16410     16413     16416     16417     16410     16413     16416     16418
     16410     16413     16416     16419     16411     16410     16413     16414
     16411     16410     16413     16415     16411     16410     16413     16416
     16412     16410     16413     16414     16412     16410     16413     16415
     16412     16410     16413     16416     16413     16416     16419     16420
     16413     16416     16419     16421     16413     16416     16419     16422
     16414     16413     16416     16417     16414     16413     16416     16418
     16414     16413     16416     16419     16415     16413     16416     16417
     16415     16413     16416     16418     16415     16413     16416     16419
     16416     16419     16422     16423     16416     16419     16422     16424
     16416     16419     16422     16425     16417     16416     16419     16420
     16417     16416     16419     16421     16417     16416     16419     16422
     16418     16416     16419     16420     16418     16416     16419     16421
     16418     16416     16419     16422     16419     16422     16425     16426
     16419     16422     16425     16427     16419     16422     16425     16428
     16420     16419     16422     16423     16420     16419     16422     16424
     16420     16419     16422     16425     16421     16419     16422     16423
     16421     16419     16422     16424     16421     16419     16422     16425
     16422     16425     16428     16429     16422     16425     16428     16430
     16422     16425     16428     16431     16423     16422     16425     16426
     16423     16422     16425     16427     16423     16422     16425     16428
     16424     16422     16425     16426     16424     16422     16425     16427
     16424     16422     16425     16428     16425     16428     16431     16432
     16425     16428     16431     16433     16425     16428     16431     16434
     16426     16425     16428     16429     16426     16425     16428     16430
     16426     16425     16428     16431     16427     16425     16428     16429
     16427     16425     16428     16430     16427     16425     16428     16431
     16429     16428     16431     16432     16429     16428     16431     16433
     16429     16428     16431     16434     16430     16428     16431     16432
     16430     16428     16431     16433     16430     16428     16431     16434
     16435     16436     16451     16452     16435     16436     16451     16453
     16435     16436     16451     16457     16436     16435     16439     16440
     16436     16435     16439     16441     16436     16435     16439     16442
     16436     16435     16443     16444     16436     16435     16443     16445
     16436     16435     16443     16446     16436     16435     16447     16448
     16436     16435     16447     16449     16436     16435     16447     16450
     16436     16451     16457     16454     16437     16436     16435     16439
     16437     16436     16435     16443     16437     16436     16435     16447
     16437     16436     16451     16452     16437     16436     16451     16453
     16437     16436     16451     16457     16438     16436     16435     16439
     16438     16436     16435     16443     16438     16436     16435     16447
     16438     16436     16451     16452     16438     16436     16451     16453
     16438     16436     16451     16457     16439     16435     16436     16451
     16439     16435     16443     16444     16439     16435     16443     16445
     16439     16435     16443     16446     16439     16435     16447     16448
     16439     16435     16447     16449     16439     16435     16447     16450
     16440     16439     16435     16443     16440     16439     16435     16447
     16441     16439     16435     16443     16441     16439     16435     16447
     16442     16439     16435     16443     16442     16439     16435     16447
     16443     16435     16436     16451     16443     16435     16447     16448
     16443     16435     16447     16449     16443     16435     16447     16450
     16444     16443     16435     16447     16445     16443     16435     16447
     16446     16443     16435     16447     16447     16435     16436     16451
     16451     16457     16454     16455     16451     16457     16454     16456
     16451     16457     16454     16458     16452     16451     16457     16454
     16453     16451     16457     16454     16454     16458     16459     16460
     16454     16458     16459     16461     16454     16458     16459     16462
     16455     16454     16458     16459     16456     16454     16458     16459
     16457     16454     16458     16459     16458     16459     16462     16463
     16458     16459     16462     16464     16458     16459     16462     16470
     16459     16462     16464     16465     16459     16462     16470     16471
     16459     16462     16470     16472     16459     16462     16470     16473
     16460     16459     16462     16463     16460     16459     16462     16464
     16460     16459     16462     16470     16461     16459     16462     16463
     16461     16459     16462     16464     16461     16459     16462     16470
     16462     16464     16465     16466     16462     16464     16465     16467
     16462     16470     16473     16474     16463     16462     16464     16465
     16463     16462     16470     16471     16463     16462     16470     16472
     16463     16462     16470     16473     16464     16462     16470     16471
     16464     16462     16470     16472     16464     16462     16470     16473
     16464     16465     16467     16468     16464     16465     16467     16469
     16464     16465     16467     16479     16465     16464     16462     16470
     16465     16467     16479     16480     16465     16467     16479     16481
     16465     16467     16479     16482     16466     16465     16467     16468
     16466     16465     16467     16469     16466     16465     16467     16479
     16467     16479     16482     16483     16467     16479     16482     16484
     16467     16479     16482     16485     16468     16467     16479     16480
     16468     16467     16479     16481     16468     16467     16479     16482
     16469     16467     16479     16480     16469     16467     16479     16481
     16469     16467     16479     16482     16470     16473     16474     16475
     16470     16473     16474     16476     16471     16470     16473     16474
     16472     16470     16473     16474     16473     16474     16476     16477
     16473     16474     16476     16478     16473     16474     16476     16526
     16474     16476     16526     16527     16474     16476     16526     16528
     16474     16476     16526     16529     16475     16474     16476     16477
     16475     16474     16476     16478     16475     16474     16476     16526
     16476     16526     16529     16530     16476     16526     16529     16531
     16476     16526     16529     16532     16477     16476     16526     16527
     16477     16476     16526     16528     16477     16476     16526     16529
     16478     16476     16526     16527     16478     16476     16526     16528
     16478     16476     16526     16529     16479     16482     16485     16486
     16479     16482     16485     16487     16479     16482     16485     16488
     16480     16479     16482     16483     16480     16479     16482     16484
     16480     16479     16482     16485     16481     16479     16482     16483
     16481     16479     16482     16484     16481     16479     16482     16485
     16482     16485     16488     16489     16482     16485     16488     16490
     16482     16485     16488     16491     16483     16482     16485     16486
     16483     16482     16485     16487     16483     16482     16485     16488
     16484     16482     16485     16486     16484     16482     16485     16487
     16484     16482     16485     16488     16485     16488     16491     16492
     16485     16488     16491     16493     16485     16488     16491     16494
     16486     16485     16488     16489     16486     16485     16488     16490
     16486     16485     16488     16491     16487     16485     16488     16489
     16487     16485     16488     16490     16487     16485     16488     16491
     16488     16491     16494     16495     16488     16491     16494     16496
     16488     16491     16494     16497     16489     16488     16491     16492
     16489     16488     16491     16493     16489     16488     16491     16494
     16490     16488     16491     16492     16490     16488     16491     16493
     16490     16488     16491     16494     16491     16494     16497     16498
     16491     16494     16497     16499     16492     16491     16494     16495
     16492     16491     16494     16496     16492     16491     16494     16497
     16493     16491     16494     16495     16493     16491     16494     16496
     16493     16491     16494     16497     16494     16497     16499     16500
     16494     16497     16499     16501     16495     16494     16497     16498
     16495     16494     16497     16499     16496     16494     16497     16498
     16496     16494     16497     16499     16497     16499     16501     16502
     16497     16499     16501     16503     16497     16499     16501     16504
     16498     16497     16499     16500     16498     16497     16499     16501
     16499     16501     16504     16505     16499     16501     16504     16506
     16499     16501     16504     16507     16500     16499     16501     16502
     16500     16499     16501     16503     16500     16499     16501     16504
     16501     16504     16507     16508     16501     16504     16507     16509
     16501     16504     16507     16510     16502     16501     16504     16505
     16502     16501     16504     16506     16502     16501     16504     16507
     16503     16501     16504     16505     16503     16501     16504     16506
     16503     16501     16504     16507     16504     16507     16510     16511
     16504     16507     16510     16512     16504     16507     16510     16513
     16505     16504     16507     16508     16505     16504     16507     16509
     16505     16504     16507     16510     16506     16504     16507     16508
     16506     16504     16507     16509     16506     16504     16507     16510
     16507     16510     16513     16514     16507     16510     16513     16515
     16507     16510     16513     16516     16508     16507     16510     16511
     16508     16507     16510     16512     16508     16507     16510     16513
     16509     16507     16510     16511     16509     16507     16510     16512
     16509     16507     16510     16513     16510     16513     16516     16517
     16510     16513     16516     16518     16510     16513     16516     16519
     16511     16510     16513     16514     16511     16510     16513     16515
     16511     16510     16513     16516     16512     16510     16513     16514
     16512     16510     16513     16515     16512     16510     16513     16516
     16513     16516     16519     16520     16513     16516     16519     16521
     16513     16516     16519     16522     16514     16513     16516     16517
     16514     16513     16516     16518     16514     16513     16516     16519
     16515     16513     16516     16517     16515     16513     16516     16518
     16515     16513     16516     16519     16516     16519     16522     16523
     16516     16519     16522     16524     16516     16519     16522     16525
     16517     16516     16519     16520     16517     16516     16519     16521
     16517     16516     16519     16522     16518     16516     16519     16520
     16518     16516     16519     16521     16518     16516     16519     16522
     16520     16519     16522     16523     16520     16519     16522     16524
     16520     16519     16522     16525     16521     16519     16522     16523
     16521     16519     16522     16524     16521     16519     16522     16525
     16526     16529     16532     16533     16526     16529     16532     16534
     16526     16529     16532     16535     16527     16526     16529     16530
     16527     16526     16529     16531     16527     16526     16529     16532
     16528     16526     16529     16530     16528     16526     16529     16531
     16528     16526     16529     16532     16529     16532     16535     16536
     16529     16532     16535     16537     16529     16532     16535     16538
     16530     16529     16532     16533     16530     16529     16532     16534
     16530     16529     16532     16535     16531     16529     16532     16533
     16531     16529     16532     16534     16531     16529     16532     16535
     16532     16535     16538     16539     16532     16535     16538     16540
     16532     16535     16538     16541     16533     16532     16535     16536
     16533     16532     16535     16537     16533     16532     16535     16538
     16534     16532     16535     16536     16534     16532     16535     16537
     16534     16532     16535     16538     16535     16538     16541     16542
     16535     16538     16541     16543     16535     16538     16541     16544
     16536     16535     16538     16539     16536     16535     16538     16540
     16536     16535     16538     16541     16537     16535     16538     16539
     16537     16535     16538     16540     16537     16535     16538     16541
     16538     16541     16544     16545     16538     16541     16544     16546
     16538     16541     16544     16547     16539     16538     16541     16542
     16539     16538     16541     16543     16539     16538     16541     16544
     16540     16538     16541     16542     16540     16538     16541     16543
     16540     16538     16541     16544     16541     16544     16547     16548
     16541     16544     16547     16549     16541     16544     16547     16550
     16542     16541     16544     16545     16542     16541     16544     16546
     16542     16541     16544     16547     16543     16541     16544     16545
     16543     16541     16544     16546     16543     16541     16544     16547
     16544     16547     16550     16551     16544     16547     16550     16552
     16544     16547     16550     16553     16545     16544     16547     16548
     16545     16544     16547     16549     16545     16544     16547     16550
     16546     16544     16547     16548     16546     16544     16547     16549
     16546     16544     16547     16550     16547     16550     16553     16554
     16547     16550     16553     16555     16547     16550     16553     16556
     16548     16547     16550     16551     16548     16547     16550     16552
     16548     16547     16550     16553     16549     16547     16550     16551
     16549     16547     16550     16552     16549     16547     16550     16553
     16550     16553     16556     16557     16550     16553     16556     16558
     16550     16553     16556     16559     16551     16550     16553     16554
     16551     16550     16553     16555     16551     16550     16553     16556
     16552     16550     16553     16554     16552     16550     16553     16555
     16552     16550     16553     16556     16553     16556     16559     16560
     16553     16556     16559     16561     16553     16556     16559     16562
     16554     16553     16556     16557     16554     16553     16556     16558
     16554     16553     16556     16559     16555     16553     16556     16557
     16555     16553     16556     16558     16555     16553     16556     16559
     16556     16559     16562     16563     16556     16559     16562     16564
     16556     16559     16562     16565     16557     16556     16559     16560
     16557     16556     16559     16561     16557     16556     16559     16562
     16558     16556     16559     16560     16558     16556     16559     16561
     16558     16556     16559     16562     16559     16562     16565     16566
     16559     16562     16565     16567     16559     16562     16565     16568
     16560     16559     16562     16563     16560     16559     16562     16564
     16560     16559     16562     16565     16561     16559     16562     16563
     16561     16559     16562     16564     16561     16559     16562     16565
     16563     16562     16565     16566     16563     16562     16565     16567
     16563     16562     16565     16568     16564     16562     16565     16566
     16564     16562     16565     16567     16564     16562     16565     16568
     16569     16570     16585     16586     16569     16570     16585     16587
     16569     16570     16585     16591     16570     16569     16573     16574
     16570     16569     16573     16575     16570     16569     16573     16576
     16570     16569     16577     16578     16570     16569     16577     16579
     16570     16569     16577     16580     16570     16569     16581     16582
     16570     16569     16581     16583     16570     16569     16581     16584
     16570     16585     16591     16588     16571     16570     16569     16573
     16571     16570     16569     16577     16571     16570     16569     16581
     16571     16570     16585     16586     16571     16570     16585     16587
     16571     16570     16585     16591     16572     16570     16569     16573
     16572     16570     16569     16577     16572     16570     16569     16581
     16572     16570     16585     16586     16572     16570     16585     16587
     16572     16570     16585     16591     16573     16569     16570     16585
     16573     16569     16577     16578     16573     16569     16577     16579
     16573     16569     16577     16580     16573     16569     16581     16582
     16573     16569     16581     16583     16573     16569     16581     16584
     16574     16573     16569     16577     16574     16573     16569     16581
     16575     16573     16569     16577     16575     16573     16569     16581
     16576     16573     16569     16577     16576     16573     16569     16581
     16577     16569     16570     16585     16577     16569     16581     16582
     16577     16569     16581     16583     16577     16569     16581     16584
     16578     16577     16569     16581     16579     16577     16569     16581
     16580     16577     16569     16581     16581     16569     16570     16585
     16585     16591     16588     16589     16585     16591     16588     16590
     16585     16591     16588     16592     16586     16585     16591     16588
     16587     16585     16591     16588     16588     16592     16593     16594
     16588     16592     16593     16595     16588     16592     16593     16596
     16589     16588     16592     16593     16590     16588     16592     16593
     16591     16588     16592     16593     16592     16593     16596     16597
     16592     16593     16596     16598     16592     16593     16596     16604
     16593     16596     16598     16599     16593     16596     16604     16605
     16593     16596     16604     16606     16593     16596     16604     16607
     16594     16593     16596     16597     16594     16593     16596     16598
     16594     16593     16596     16604     16595     16593     16596     16597
     16595     16593     16596     16598     16595     16593     16596     16604
     16596     16598     16599     16600     16596     16598     16599     16601
     16596     16604     16607     16608     16597     16596     16598     16599
     16597     16596     16604     16605     16597     16596     16604     16606
     16597     16596     16604     16607     16598     16596     16604     16605
     16598     16596     16604     16606     16598     16596     16604     16607
     16598     16599     16601     16602     16598     16599     16601     16603
     16598     16599     16601     16613     16599     16598     16596     16604
     16599     16601     16613     16614     16599     16601     16613     16615
     16599     16601     16613     16616     16600     16599     16601     16602
     16600     16599     16601     16603     16600     16599     16601     16613
     16601     16613     16616     16617     16601     16613     16616     16618
     16601     16613     16616     16619     16602     16601     16613     16614
     16602     16601     16613     16615     16602     16601     16613     16616
     16603     16601     16613     16614     16603     16601     16613     16615
     16603     16601     16613     16616     16604     16607     16608     16609
     16604     16607     16608     16610     16605     16604     16607     16608
     16606     16604     16607     16608     16607     16608     16610     16611
     16607     16608     16610     16612     16607     16608     16610     16660
     16608     16610     16660     16661     16608     16610     16660     16662
     16608     16610     16660     16663     16609     16608     16610     16611
     16609     16608     16610     16612     16609     16608     16610     16660
     16610     16660     16663     16664     16610     16660     16663     16665
     16610     16660     16663     16666     16611     16610     16660     16661
     16611     16610     16660     16662     16611     16610     16660     16663
     16612     16610     16660     16661     16612     16610     16660     16662
     16612     16610     16660     16663     16613     16616     16619     16620
     16613     16616     16619     16621     16613     16616     16619     16622
     16614     16613     16616     16617     16614     16613     16616     16618
     16614     16613     16616     16619     16615     16613     16616     16617
     16615     16613     16616     16618     16615     16613     16616     16619
     16616     16619     16622     16623     16616     16619     16622     16624
     16616     16619     16622     16625     16617     16616     16619     16620
     16617     16616     16619     16621     16617     16616     16619     16622
     16618     16616     16619     16620     16618     16616     16619     16621
     16618     16616     16619     16622     16619     16622     16625     16626
     16619     16622     16625     16627     16619     16622     16625     16628
     16620     16619     16622     16623     16620     16619     16622     16624
     16620     16619     16622     16625     16621     16619     16622     16623
     16621     16619     16622     16624     16621     16619     16622     16625
     16622     16625     16628     16629     16622     16625     16628     16630
     16622     16625     16628     16631     16623     16622     16625     16626
     16623     16622     16625     16627     16623     16622     16625     16628
     16624     16622     16625     16626     16624     16622     16625     16627
     16624     16622     16625     16628     16625     16628     16631     16632
     16625     16628     16631     16633     16626     16625     16628     16629
     16626     16625     16628     16630     16626     16625     16628     16631
     16627     16625     16628     16629     16627     16625     16628     16630
     16627     16625     16628     16631     16628     16631     16633     16634
     16628     16631     16633     16635     16629     16628     16631     16632
     16629     16628     16631     16633     16630     16628     16631     16632
     16630     16628     16631     16633     16631     16633     16635     16636
     16631     16633     16635     16637     16631     16633     16635     16638
     16632     16631     16633     16634     16632     16631     16633     16635
     16633     16635     16638     16639     16633     16635     16638     16640
     16633     16635     16638     16641     16634     16633     16635     16636
     16634     16633     16635     16637     16634     16633     16635     16638
     16635     16638     16641     16642     16635     16638     16641     16643
     16635     16638     16641     16644     16636     16635     16638     16639
     16636     16635     16638     16640     16636     16635     16638     16641
     16637     16635     16638     16639     16637     16635     16638     16640
     16637     16635     16638     16641     16638     16641     16644     16645
     16638     16641     16644     16646     16638     16641     16644     16647
     16639     16638     16641     16642     16639     16638     16641     16643
     16639     16638     16641     16644     16640     16638     16641     16642
     16640     16638     16641     16643     16640     16638     16641     16644
     16641     16644     16647     16648     16641     16644     16647     16649
     16641     16644     16647     16650     16642     16641     16644     16645
     16642     16641     16644     16646     16642     16641     16644     16647
     16643     16641     16644     16645     16643     16641     16644     16646
     16643     16641     16644     16647     16644     16647     16650     16651
     16644     16647     16650     16652     16644     16647     16650     16653
     16645     16644     16647     16648     16645     16644     16647     16649
     16645     16644     16647     16650     16646     16644     16647     16648
     16646     16644     16647     16649     16646     16644     16647     16650
     16647     16650     16653     16654     16647     16650     16653     16655
     16647     16650     16653     16656     16648     16647     16650     16651
     16648     16647     16650     16652     16648     16647     16650     16653
     16649     16647     16650     16651     16649     16647     16650     16652
     16649     16647     16650     16653     16650     16653     16656     16657
     16650     16653     16656     16658     16650     16653     16656     16659
     16651     16650     16653     16654     16651     16650     16653     16655
     16651     16650     16653     16656     16652     16650     16653     16654
     16652     16650     16653     16655     16652     16650     16653     16656
     16654     16653     16656     16657     16654     16653     16656     16658
     16654     16653     16656     16659     16655     16653     16656     16657
     16655     16653     16656     16658     16655     16653     16656     16659
     16660     16663     16666     16667     16660     16663     16666     16668
     16660     16663     16666     16669     16661     16660     16663     16664
     16661     16660     16663     16665     16661     16660     16663     16666
     16662     16660     16663     16664     16662     16660     16663     16665
     16662     16660     16663     16666     16663     16666     16669     16670
     16663     16666     16669     16671     16663     16666     16669     16672
     16664     16663     16666     16667     16664     16663     16666     16668
     16664     16663     16666     16669     16665     16663     16666     16667
     16665     16663     16666     16668     16665     16663     16666     16669
     16666     16669     16672     16673     16666     16669     16672     16674
     16666     16669     16672     16675     16667     16666     16669     16670
     16667     16666     16669     16671     16667     16666     16669     16672
     16668     16666     16669     16670     16668     16666     16669     16671
     16668     16666     16669     16672     16669     16672     16675     16676
     16669     16672     16675     16677     16669     16672     16675     16678
     16670     16669     16672     16673     16670     16669     16672     16674
     16670     16669     16672     16675     16671     16669     16672     16673
     16671     16669     16672     16674     16671     16669     16672     16675
     16672     16675     16678     16679     16672     16675     16678     16680
     16672     16675     16678     16681     16673     16672     16675     16676
     16673     16672     16675     16677     16673     16672     16675     16678
     16674     16672     16675     16676     16674     16672     16675     16677
     16674     16672     16675     16678     16675     16678     16681     16682
     16675     16678     16681     16683     16675     16678     16681     16684
     16676     16675     16678     16679     16676     16675     16678     16680
     16676     16675     16678     16681     16677     16675     16678     16679
     16677     16675     16678     16680     16677     16675     16678     16681
     16678     16681     16684     16685     16678     16681     16684     16686
     16678     16681     16684     16687     16679     16678     16681     16682
     16679     16678     16681     16683     16679     16678     16681     16684
     16680     16678     16681     16682     16680     16678     16681     16683
     16680     16678     16681     16684     16681     16684     16687     16688
     16681     16684     16687     16689     16681     16684     16687     16690
     16682     16681     16684     16685     16682     16681     16684     16686
     16682     16681     16684     16687     16683     16681     16684     16685
     16683     16681     16684     16686     16683     16681     16684     16687
     16684     16687     16690     16691     16684     16687     16690     16692
     16684     16687     16690     16693     16685     16684     16687     16688
     16685     16684     16687     16689     16685     16684     16687     16690
     16686     16684     16687     16688     16686     16684     16687     16689
     16686     16684     16687     16690     16687     16690     16693     16694
     16687     16690     16693     16695     16687     16690     16693     16696
     16688     16687     16690     16691     16688     16687     16690     16692
     16688     16687     16690     16693     16689     16687     16690     16691
     16689     16687     16690     16692     16689     16687     16690     16693
     16690     16693     16696     16697     16690     16693     16696     16698
     16690     16693     16696     16699     16691     16690     16693     16694
     16691     16690     16693     16695     16691     16690     16693     16696
     16692     16690     16693     16694     16692     16690     16693     16695
     16692     16690     16693     16696     16693     16696     16699     16700
     16693     16696     16699     16701     16693     16696     16699     16702
     16694     16693     16696     16697     16694     16693     16696     16698
     16694     16693     16696     16699     16695     16693     16696     16697
     16695     16693     16696     16698     16695     16693     16696     16699
     16697     16696     16699     16700     16697     16696     16699     16701
     16697     16696     16699     16702     16698     16696     16699     16700
     16698     16696     16699     16701     16698     16696     16699     16702
     16703     16704     16719     16720     16703     16704     16719     16721
     16703     16704     16719     16725     16704     16703     16707     16708
     16704     16703     16707     16709     16704     16703     16707     16710
     16704     16703     16711     16712     16704     16703     16711     16713
     16704     16703     16711     16714     16704     16703     16715     16716
     16704     16703     16715     16717     16704     16703     16715     16718
     16704     16719     16725     16722     16705     16704     16703     16707
     16705     16704     16703     16711     16705     16704     16703     16715
     16705     16704     16719     16720     16705     16704     16719     16721
     16705     16704     16719     16725     16706     16704     16703     16707
     16706     16704     16703     16711     16706     16704     16703     16715
     16706     16704     16719     16720     16706     16704     16719     16721
     16706     16704     16719     16725     16707     16703     16704     16719
     16707     16703     16711     16712     16707     16703     16711     16713
     16707     16703     16711     16714     16707     16703     16715     16716
     16707     16703     16715     16717     16707     16703     16715     16718
     16708     16707     16703     16711     16708     16707     16703     16715
     16709     16707     16703     16711     16709     16707     16703     16715
     16710     16707     16703     16711     16710     16707     16703     16715
     16711     16703     16704     16719     16711     16703     16715     16716
     16711     16703     16715     16717     16711     16703     16715     16718
     16712     16711     16703     16715     16713     16711     16703     16715
     16714     16711     16703     16715     16715     16703     16704     16719
     16719     16725     16722     16723     16719     16725     16722     16724
     16719     16725     16722     16726     16720     16719     16725     16722
     16721     16719     16725     16722     16722     16726     16727     16728
     16722     16726     16727     16729     16722     16726     16727     16730
     16723     16722     16726     16727     16724     16722     16726     16727
     16725     16722     16726     16727     16726     16727     16730     16731
     16726     16727     16730     16732     16726     16727     16730     16738
     16727     16730     16732     16733     16727     16730     16738     16739
     16727     16730     16738     16740     16727     16730     16738     16741
     16728     16727     16730     16731     16728     16727     16730     16732
     16728     16727     16730     16738     16729     16727     16730     16731
     16729     16727     16730     16732     16729     16727     16730     16738
     16730     16732     16733     16734     16730     16732     16733     16735
     16730     16738     16741     16742     16731     16730     16732     16733
     16731     16730     16738     16739     16731     16730     16738     16740
     16731     16730     16738     16741     16732     16730     16738     16739
     16732     16730     16738     16740     16732     16730     16738     16741
     16732     16733     16735     16736     16732     16733     16735     16737
     16732     16733     16735     16747     16733     16732     16730     16738
     16733     16735     16747     16748     16733     16735     16747     16749
     16733     16735     16747     16750     16734     16733     16735     16736
     16734     16733     16735     16737     16734     16733     16735     16747
     16735     16747     16750     16751     16735     16747     16750     16752
     16735     16747     16750     16753     16736     16735     16747     16748
     16736     16735     16747     16749     16736     16735     16747     16750
     16737     16735     16747     16748     16737     16735     16747     16749
     16737     16735     16747     16750     16738     16741     16742     16743
     16738     16741     16742     16744     16739     16738     16741     16742
     16740     16738     16741     16742     16741     16742     16744     16745
     16741     16742     16744     16746     16741     16742     16744     16794
     16742     16744     16794     16795     16742     16744     16794     16796
     16742     16744     16794     16797     16743     16742     16744     16745
     16743     16742     16744     16746     16743     16742     16744     16794
     16744     16794     16797     16798     16744     16794     16797     16799
     16744     16794     16797     16800     16745     16744     16794     16795
     16745     16744     16794     16796     16745     16744     16794     16797
     16746     16744     16794     16795     16746     16744     16794     16796
     16746     16744     16794     16797     16747     16750     16753     16754
     16747     16750     16753     16755     16747     16750     16753     16756
     16748     16747     16750     16751     16748     16747     16750     16752
     16748     16747     16750     16753     16749     16747     16750     16751
     16749     16747     16750     16752     16749     16747     16750     16753
     16750     16753     16756     16757     16750     16753     16756     16758
     16750     16753     16756     16759     16751     16750     16753     16754
     16751     16750     16753     16755     16751     16750     16753     16756
     16752     16750     16753     16754     16752     16750     16753     16755
     16752     16750     16753     16756     16753     16756     16759     16760
     16753     16756     16759     16761     16753     16756     16759     16762
     16754     16753     16756     16757     16754     16753     16756     16758
     16754     16753     16756     16759     16755     16753     16756     16757
     16755     16753     16756     16758     16755     16753     16756     16759
     16756     16759     16762     16763     16756     16759     16762     16764
     16756     16759     16762     16765     16757     16756     16759     16760
     16757     16756     16759     16761     16757     16756     16759     16762
     16758     16756     16759     16760     16758     16756     16759     16761
     16758     16756     16759     16762     16759     16762     16765     16766
     16759     16762     16765     16767     16760     16759     16762     16763
     16760     16759     16762     16764     16760     16759     16762     16765
     16761     16759     16762     16763     16761     16759     16762     16764
     16761     16759     16762     16765     16762     16765     16767     16768
     16762     16765     16767     16769     16763     16762     16765     16766
     16763     16762     16765     16767     16764     16762     16765     16766
     16764     16762     16765     16767     16765     16767     16769     16770
     16765     16767     16769     16771     16765     16767     16769     16772
     16766     16765     16767     16768     16766     16765     16767     16769
     16767     16769     16772     16773     16767     16769     16772     16774
     16767     16769     16772     16775     16768     16767     16769     16770
     16768     16767     16769     16771     16768     16767     16769     16772
     16769     16772     16775     16776     16769     16772     16775     16777
     16769     16772     16775     16778     16770     16769     16772     16773
     16770     16769     16772     16774     16770     16769     16772     16775
     16771     16769     16772     16773     16771     16769     16772     16774
     16771     16769     16772     16775     16772     16775     16778     16779
     16772     16775     16778     16780     16772     16775     16778     16781
     16773     16772     16775     16776     16773     16772     16775     16777
     16773     16772     16775     16778     16774     16772     16775     16776
     16774     16772     16775     16777     16774     16772     16775     16778
     16775     16778     16781     16782     16775     16778     16781     16783
     16775     16778     16781     16784     16776     16775     16778     16779
     16776     16775     16778     16780     16776     16775     16778     16781
     16777     16775     16778     16779     16777     16775     16778     16780
     16777     16775     16778     16781     16778     16781     16784     16785
     16778     16781     16784     16786     16778     16781     16784     16787
     16779     16778     16781     16782     16779     16778     16781     16783
     16779     16778     16781     16784     16780     16778     16781     16782
     16780     16778     16781     16783     16780     16778     16781     16784
     16781     16784     16787     16788     16781     16784     16787     16789
     16781     16784     16787     16790     16782     16781     16784     16785
     16782     16781     16784     16786     16782     16781     16784     16787
     16783     16781     16784     16785     16783     16781     16784     16786
     16783     16781     16784     16787     16784     16787     16790     16791
     16784     16787     16790     16792     16784     16787     16790     16793
     16785     16784     16787     16788     16785     16784     16787     16789
     16785     16784     16787     16790     16786     16784     16787     16788
     16786     16784     16787     16789     16786     16784     16787     16790
     16788     16787     16790     16791     16788     16787     16790     16792
     16788     16787     16790     16793     16789     16787     16790     16791
     16789     16787     16790     16792     16789     16787     16790     16793
     16794     16797     16800     16801     16794     16797     16800     16802
     16794     16797     16800     16803     16795     16794     16797     16798
     16795     16794     16797     16799     16795     16794     16797     16800
     16796     16794     16797     16798     16796     16794     16797     16799
     16796     16794     16797     16800     16797     16800     16803     16804
     16797     16800     16803     16805     16797     16800     16803     16806
     16798     16797     16800     16801     16798     16797     16800     16802
     16798     16797     16800     16803     16799     16797     16800     16801
     16799     16797     16800     16802     16799     16797     16800     16803
     16800     16803     16806     16807     16800     16803     16806     16808
     16800     16803     16806     16809     16801     16800     16803     16804
     16801     16800     16803     16805     16801     16800     16803     16806
     16802     16800     16803     16804     16802     16800     16803     16805
     16802     16800     16803     16806     16803     16806     16809     16810
     16803     16806     16809     16811     16803     16806     16809     16812
     16804     16803     16806     16807     16804     16803     16806     16808
     16804     16803     16806     16809     16805     16803     16806     16807
     16805     16803     16806     16808     16805     16803     16806     16809
     16806     16809     16812     16813     16806     16809     16812     16814
     16806     16809     16812     16815     16807     16806     16809     16810
     16807     16806     16809     16811     16807     16806     16809     16812
     16808     16806     16809     16810     16808     16806     16809     16811
     16808     16806     16809     16812     16809     16812     16815     16816
     16809     16812     16815     16817     16809     16812     16815     16818
     16810     16809     16812     16813     16810     16809     16812     16814
     16810     16809     16812     16815     16811     16809     16812     16813
     16811     16809     16812     16814     16811     16809     16812     16815
     16812     16815     16818     16819     16812     16815     16818     16820
     16812     16815     16818     16821     16813     16812     16815     16816
     16813     16812     16815     16817     16813     16812     16815     16818
     16814     16812     16815     16816     16814     16812     16815     16817
     16814     16812     16815     16818     16815     16818     16821     16822
     16815     16818     16821     16823     16815     16818     16821     16824
     16816     16815     16818     16819     16816     16815     16818     16820
     16816     16815     16818     16821     16817     16815     16818     16819
     16817     16815     16818     16820     16817     16815     16818     16821
     16818     16821     16824     16825     16818     16821     16824     16826
     16818     16821     16824     16827     16819     16818     16821     16822
     16819     16818     16821     16823     16819     16818     16821     16824
     16820     16818     16821     16822     16820     16818     16821     16823
     16820     16818     16821     16824     16821     16824     16827     16828
     16821     16824     16827     16829     16821     16824     16827     16830
     16822     16821     16824     16825     16822     16821     16824     16826
     16822     16821     16824     16827     16823     16821     16824     16825
     16823     16821     16824     16826     16823     16821     16824     16827
     16824     16827     16830     16831     16824     16827     16830     16832
     16824     16827     16830     16833     16825     16824     16827     16828
     16825     16824     16827     16829     16825     16824     16827     16830
     16826     16824     16827     16828     16826     16824     16827     16829
     16826     16824     16827     16830     16827     16830     16833     16834
     16827     16830     16833     16835     16827     16830     16833     16836
     16828     16827     16830     16831     16828     16827     16830     16832
     16828     16827     16830     16833     16829     16827     16830     16831
     16829     16827     16830     16832     16829     16827     16830     16833
     16831     16830     16833     16834     16831     16830     16833     16835
     16831     16830     16833     16836     16832     16830     16833     16834
     16832     16830     16833     16835     16832     16830     16833     16836
     16837     16838     16853     16854     16837     16838     16853     16855
     16837     16838     16853     16859     16838     16837     16841     16842
     16838     16837     16841     16843     16838     16837     16841     16844
     16838     16837     16845     16846     16838     16837     16845     16847
     16838     16837     16845     16848     16838     16837     16849     16850
     16838     16837     16849     16851     16838     16837     16849     16852
     16838     16853     16859     16856     16839     16838     16837     16841
     16839     16838     16837     16845     16839     16838     16837     16849
     16839     16838     16853     16854     16839     16838     16853     16855
     16839     16838     16853     16859     16840     16838     16837     16841
     16840     16838     16837     16845     16840     16838     16837     16849
     16840     16838     16853     16854     16840     16838     16853     16855
     16840     16838     16853     16859     16841     16837     16838     16853
     16841     16837     16845     16846     16841     16837     16845     16847
     16841     16837     16845     16848     16841     16837     16849     16850
     16841     16837     16849     16851     16841     16837     16849     16852
     16842     16841     16837     16845     16842     16841     16837     16849
     16843     16841     16837     16845     16843     16841     16837     16849
     16844     16841     16837     16845     16844     16841     16837     16849
     16845     16837     16838     16853     16845     16837     16849     16850
     16845     16837     16849     16851     16845     16837     16849     16852
     16846     16845     16837     16849     16847     16845     16837     16849
     16848     16845     16837     16849     16849     16837     16838     16853
     16853     16859     16856     16857     16853     16859     16856     16858
     16853     16859     16856     16860     16854     16853     16859     16856
     16855     16853     16859     16856     16856     16860     16861     16862
     16856     16860     16861     16863     16856     16860     16861     16864
     16857     16856     16860     16861     16858     16856     16860     16861
     16859     16856     16860     16861     16860     16861     16864     16865
     16860     16861     16864     16866     16860     16861     16864     16872
     16861     16864     16866     16867     16861     16864     16872     16873
     16861     16864     16872     16874     16861     16864     16872     16875
     16862     16861     16864     16865     16862     16861     16864     16866
     16862     16861     16864     16872     16863     16861     16864     16865
     16863     16861     16864     16866     16863     16861     16864     16872
     16864     16866     16867     16868     16864     16866     16867     16869
     16864     16872     16875     16876     16865     16864     16866     16867
     16865     16864     16872     16873     16865     16864     16872     16874
     16865     16864     16872     16875     16866     16864     16872     16873
     16866     16864     16872     16874     16866     16864     16872     16875
     16866     16867     16869     16870     16866     16867     16869     16871
     16866     16867     16869     16881     16867     16866     16864     16872
     16867     16869     16881     16882     16867     16869     16881     16883
     16867     16869     16881     16884     16868     16867     16869     16870
     16868     16867     16869     16871     16868     16867     16869     16881
     16869     16881     16884     16885     16869     16881     16884     16886
     16869     16881     16884     16887     16870     16869     16881     16882
     16870     16869     16881     16883     16870     16869     16881     16884
     16871     16869     16881     16882     16871     16869     16881     16883
     16871     16869     16881     16884     16872     16875     16876     16877
     16872     16875     16876     16878     16873     16872     16875     16876
     16874     16872     16875     16876     16875     16876     16878     16879
     16875     16876     16878     16880     16875     16876     16878     16928
     16876     16878     16928     16929     16876     16878     16928     16930
     16876     16878     16928     16931     16877     16876     16878     16879
     16877     16876     16878     16880     16877     16876     16878     16928
     16878     16928     16931     16932     16878     16928     16931     16933
     16878     16928     16931     16934     16879     16878     16928     16929
     16879     16878     16928     16930     16879     16878     16928     16931
     16880     16878     16928     16929     16880     16878     16928     16930
     16880     16878     16928     16931     16881     16884     16887     16888
     16881     16884     16887     16889     16881     16884     16887     16890
     16882     16881     16884     16885     16882     16881     16884     16886
     16882     16881     16884     16887     16883     16881     16884     16885
     16883     16881     16884     16886     16883     16881     16884     16887
     16884     16887     16890     16891     16884     16887     16890     16892
     16884     16887     16890     16893     16885     16884     16887     16888
     16885     16884     16887     16889     16885     16884     16887     16890
     16886     16884     16887     16888     16886     16884     16887     16889
     16886     16884     16887     16890     16887     16890     16893     16894
     16887     16890     16893     16895     16887     16890     16893     16896
     16888     16887     16890     16891     16888     16887     16890     16892
     16888     16887     16890     16893     16889     16887     16890     16891
     16889     16887     16890     16892     16889     16887     16890     16893
     16890     16893     16896     16897     16890     16893     16896     16898
     16890     16893     16896     16899     16891     16890     16893     16894
     16891     16890     16893     16895     16891     16890     16893     16896
     16892     16890     16893     16894     16892     16890     16893     16895
     16892     16890     16893     16896     16893     16896     16899     16900
     16893     16896     16899     16901     16894     16893     16896     16897
     16894     16893     16896     16898     16894     16893     16896     16899
     16895     16893     16896     16897     16895     16893     16896     16898
     16895     16893     16896     16899     16896     16899     16901     16902
     16896     16899     16901     16903     16897     16896     16899     16900
     16897     16896     16899     16901     16898     16896     16899     16900
     16898     16896     16899     16901     16899     16901     16903     16904
     16899     16901     16903     16905     16899     16901     16903     16906
     16900     16899     16901     16902     16900     16899     16901     16903
     16901     16903     16906     16907     16901     16903     16906     16908
     16901     16903     16906     16909     16902     16901     16903     16904
     16902     16901     16903     16905     16902     16901     16903     16906
     16903     16906     16909     16910     16903     16906     16909     16911
     16903     16906     16909     16912     16904     16903     16906     16907
     16904     16903     16906     16908     16904     16903     16906     16909
     16905     16903     16906     16907     16905     16903     16906     16908
     16905     16903     16906     16909     16906     16909     16912     16913
     16906     16909     16912     16914     16906     16909     16912     16915
     16907     16906     16909     16910     16907     16906     16909     16911
     16907     16906     16909     16912     16908     16906     16909     16910
     16908     16906     16909     16911     16908     16906     16909     16912
     16909     16912     16915     16916     16909     16912     16915     16917
     16909     16912     16915     16918     16910     16909     16912     16913
     16910     16909     16912     16914     16910     16909     16912     16915
     16911     16909     16912     16913     16911     16909     16912     16914
     16911     16909     16912     16915     16912     16915     16918     16919
     16912     16915     16918     16920     16912     16915     16918     16921
     16913     16912     16915     16916     16913     16912     16915     16917
     16913     16912     16915     16918     16914     16912     16915     16916
     16914     16912     16915     16917     16914     16912     16915     16918
     16915     16918     16921     16922     16915     16918     16921     16923
     16915     16918     16921     16924     16916     16915     16918     16919
     16916     16915     16918     16920     16916     16915     16918     16921
     16917     16915     16918     16919     16917     16915     16918     16920
     16917     16915     16918     16921     16918     16921     16924     16925
     16918     16921     16924     16926     16918     16921     16924     16927
     16919     16918     16921     16922     16919     16918     16921     16923
     16919     16918     16921     16924     16920     16918     16921     16922
     16920     16918     16921     16923     16920     16918     16921     16924
     16922     16921     16924     16925     16922     16921     16924     16926
     16922     16921     16924     16927     16923     16921     16924     16925
     16923     16921     16924     16926     16923     16921     16924     16927
     16928     16931     16934     16935     16928     16931     16934     16936
     16928     16931     16934     16937     16929     16928     16931     16932
     16929     16928     16931     16933     16929     16928     16931     16934
     16930     16928     16931     16932     16930     16928     16931     16933
     16930     16928     16931     16934     16931     16934     16937     16938
     16931     16934     16937     16939     16931     16934     16937     16940
     16932     16931     16934     16935     16932     16931     16934     16936
     16932     16931     16934     16937     16933     16931     16934     16935
     16933     16931     16934     16936     16933     16931     16934     16937
     16934     16937     16940     16941     16934     16937     16940     16942
     16934     16937     16940     16943     16935     16934     16937     16938
     16935     16934     16937     16939     16935     16934     16937     16940
     16936     16934     16937     16938     16936     16934     16937     16939
     16936     16934     16937     16940     16937     16940     16943     16944
     16937     16940     16943     16945     16937     16940     16943     16946
     16938     16937     16940     16941     16938     16937     16940     16942
     16938     16937     16940     16943     16939     16937     16940     16941
     16939     16937     16940     16942     16939     16937     16940     16943
     16940     16943     16946     16947     16940     16943     16946     16948
     16940     16943     16946     16949     16941     16940     16943     16944
     16941     16940     16943     16945     16941     16940     16943     16946
     16942     16940     16943     16944     16942     16940     16943     16945
     16942     16940     16943     16946     16943     16946     16949     16950
     16943     16946     16949     16951     16943     16946     16949     16952
     16944     16943     16946     16947     16944     16943     16946     16948
     16944     16943     16946     16949     16945     16943     16946     16947
     16945     16943     16946     16948     16945     16943     16946     16949
     16946     16949     16952     16953     16946     16949     16952     16954
     16946     16949     16952     16955     16947     16946     16949     16950
     16947     16946     16949     16951     16947     16946     16949     16952
     16948     16946     16949     16950     16948     16946     16949     16951
     16948     16946     16949     16952     16949     16952     16955     16956
     16949     16952     16955     16957     16949     16952     16955     16958
     16950     16949     16952     16953     16950     16949     16952     16954
     16950     16949     16952     16955     16951     16949     16952     16953
     16951     16949     16952     16954     16951     16949     16952     16955
     16952     16955     16958     16959     16952     16955     16958     16960
     16952     16955     16958     16961     16953     16952     16955     16956
     16953     16952     16955     16957     16953     16952     16955     16958
     16954     16952     16955     16956     16954     16952     16955     16957
     16954     16952     16955     16958     16955     16958     16961     16962
     16955     16958     16961     16963     16955     16958     16961     16964
     16956     16955     16958     16959     16956     16955     16958     16960
     16956     16955     16958     16961     16957     16955     16958     16959
     16957     16955     16958     16960     16957     16955     16958     16961
     16958     16961     16964     16965     16958     16961     16964     16966
     16958     16961     16964     16967     16959     16958     16961     16962
     16959     16958     16961     16963     16959     16958     16961     16964
     16960     16958     16961     16962     16960     16958     16961     16963
     16960     16958     16961     16964     16961     16964     16967     16968
     16961     16964     16967     16969     16961     16964     16967     16970
     16962     16961     16964     16965     16962     16961     16964     16966
     16962     16961     16964     16967     16963     16961     16964     16965
     16963     16961     16964     16966     16963     16961     16964     16967
     16965     16964     16967     16968     16965     16964     16967     16969
     16965     16964     16967     16970     16966     16964     16967     16968
     16966     16964     16967     16969     16966     16964     16967     16970
     16971     16972     16987     16988     16971     16972     16987     16989
     16971     16972     16987     16993     16972     16971     16975     16976
     16972     16971     16975     16977     16972     16971     16975     16978
     16972     16971     16979     16980     16972     16971     16979     16981
     16972     16971     16979     16982     16972     16971     16983     16984
     16972     16971     16983     16985     16972     16971     16983     16986
     16972     16987     16993     16990     16973     16972     16971     16975
     16973     16972     16971     16979     16973     16972     16971     16983
     16973     16972     16987     16988     16973     16972     16987     16989
     16973     16972     16987     16993     16974     16972     16971     16975
     16974     16972     16971     16979     16974     16972     16971     16983
     16974     16972     16987     16988     16974     16972     16987     16989
     16974     16972     16987     16993     16975     16971     16972     16987
     16975     16971     16979     16980     16975     16971     16979     16981
     16975     16971     16979     16982     16975     16971     16983     16984
     16975     16971     16983     16985     16975     16971     16983     16986
     16976     16975     16971     16979     16976     16975     16971     16983
     16977     16975     16971     16979     16977     16975     16971     16983
     16978     16975     16971     16979     16978     16975     16971     16983
     16979     16971     16972     16987     16979     16971     16983     16984
     16979     16971     16983     16985     16979     16971     16983     16986
     16980     16979     16971     16983     16981     16979     16971     16983
     16982     16979     16971     16983     16983     16971     16972     16987
     16987     16993     16990     16991     16987     16993     16990     16992
     16987     16993     16990     16994     16988     16987     16993     16990
     16989     16987     16993     16990     16990     16994     16995     16996
     16990     16994     16995     16997     16990     16994     16995     16998
     16991     16990     16994     16995     16992     16990     16994     16995
     16993     16990     16994     16995     16994     16995     16998     16999
     16994     16995     16998     17000     16994     16995     16998     17006
     16995     16998     17000     17001     16995     16998     17006     17007
     16995     16998     17006     17008     16995     16998     17006     17009
     16996     16995     16998     16999     16996     16995     16998     17000
     16996     16995     16998     17006     16997     16995     16998     16999
     16997     16995     16998     17000     16997     16995     16998     17006
     16998     17000     17001     17002     16998     17000     17001     17003
     16998     17006     17009     17010     16999     16998     17000     17001
     16999     16998     17006     17007     16999     16998     17006     17008
     16999     16998     17006     17009     17000     16998     17006     17007
     17000     16998     17006     17008     17000     16998     17006     17009
     17000     17001     17003     17004     17000     17001     17003     17005
     17000     17001     17003     17015     17001     17000     16998     17006
     17001     17003     17015     17016     17001     17003     17015     17017
     17001     17003     17015     17018     17002     17001     17003     17004
     17002     17001     17003     17005     17002     17001     17003     17015
     17003     17015     17018     17019     17003     17015     17018     17020
     17003     17015     17018     17021     17004     17003     17015     17016
     17004     17003     17015     17017     17004     17003     17015     17018
     17005     17003     17015     17016     17005     17003     17015     17017
     17005     17003     17015     17018     17006     17009     17010     17011
     17006     17009     17010     17012     17007     17006     17009     17010
     17008     17006     17009     17010     17009     17010     17012     17013
     17009     17010     17012     17014     17009     17010     17012     17062
     17010     17012     17062     17063     17010     17012     17062     17064
     17010     17012     17062     17065     17011     17010     17012     17013
     17011     17010     17012     17014     17011     17010     17012     17062
     17012     17062     17065     17066     17012     17062     17065     17067
     17012     17062     17065     17068     17013     17012     17062     17063
     17013     17012     17062     17064     17013     17012     17062     17065
     17014     17012     17062     17063     17014     17012     17062     17064
     17014     17012     17062     17065     17015     17018     17021     17022
     17015     17018     17021     17023     17015     17018     17021     17024
     17016     17015     17018     17019     17016     17015     17018     17020
     17016     17015     17018     17021     17017     17015     17018     17019
     17017     17015     17018     17020     17017     17015     17018     17021
     17018     17021     17024     17025     17018     17021     17024     17026
     17018     17021     17024     17027     17019     17018     17021     17022
     17019     17018     17021     17023     17019     17018     17021     17024
     17020     17018     17021     17022     17020     17018     17021     17023
     17020     17018     17021     17024     17021     17024     17027     17028
     17021     17024     17027     17029     17021     17024     17027     17030
     17022     17021     17024     17025     17022     17021     17024     17026
     17022     17021     17024     17027     17023     17021     17024     17025
     17023     17021     17024     17026     17023     17021     17024     17027
     17024     17027     17030     17031     17024     17027     17030     17032
     17024     17027     17030     17033     17025     17024     17027     17028
     17025     17024     17027     17029     17025     17024     17027     17030
     17026     17024     17027     17028     17026     17024     17027     17029
     17026     17024     17027     17030     17027     17030     17033     17034
     17027     17030     17033     17035     17028     17027     17030     17031
     17028     17027     17030     17032     17028     17027     17030     17033
     17029     17027     17030     17031     17029     17027     17030     17032
     17029     17027     17030     17033     17030     17033     17035     17036
     17030     17033     17035     17037     17031     17030     17033     17034
     17031     17030     17033     17035     17032     17030     17033     17034
     17032     17030     17033     17035     17033     17035     17037     17038
     17033     17035     17037     17039     17033     17035     17037     17040
     17034     17033     17035     17036     17034     17033     17035     17037
     17035     17037     17040     17041     17035     17037     17040     17042
     17035     17037     17040     17043     17036     17035     17037     17038
     17036     17035     17037     17039     17036     17035     17037     17040
     17037     17040     17043     17044     17037     17040     17043     17045
     17037     17040     17043     17046     17038     17037     17040     17041
     17038     17037     17040     17042     17038     17037     17040     17043
     17039     17037     17040     17041     17039     17037     17040     17042
     17039     17037     17040     17043     17040     17043     17046     17047
     17040     17043     17046     17048     17040     17043     17046     17049
     17041     17040     17043     17044     17041     17040     17043     17045
     17041     17040     17043     17046     17042     17040     17043     17044
     17042     17040     17043     17045     17042     17040     17043     17046
     17043     17046     17049     17050     17043     17046     17049     17051
     17043     17046     17049     17052     17044     17043     17046     17047
     17044     17043     17046     17048     17044     17043     17046     17049
     17045     17043     17046     17047     17045     17043     17046     17048
     17045     17043     17046     17049     17046     17049     17052     17053
     17046     17049     17052     17054     17046     17049     17052     17055
     17047     17046     17049     17050     17047     17046     17049     17051
     17047     17046     17049     17052     17048     17046     17049     17050
     17048     17046     17049     17051     17048     17046     17049     17052
     17049     17052     17055     17056     17049     17052     17055     17057
     17049     17052     17055     17058     17050     17049     17052     17053
     17050     17049     17052     17054     17050     17049     17052     17055
     17051     17049     17052     17053     17051     17049     17052     17054
     17051     17049     17052     17055     17052     17055     17058     17059
     17052     17055     17058     17060     17052     17055     17058     17061
     17053     17052     17055     17056     17053     17052     17055     17057
     17053     17052     17055     17058     17054     17052     17055     17056
     17054     17052     17055     17057     17054     17052     17055     17058
     17056     17055     17058     17059     17056     17055     17058     17060
     17056     17055     17058     17061     17057     17055     17058     17059
     17057     17055     17058     17060     17057     17055     17058     17061
     17062     17065     17068     17069     17062     17065     17068     17070
     17062     17065     17068     17071     17063     17062     17065     17066
     17063     17062     17065     17067     17063     17062     17065     17068
     17064     17062     17065     17066     17064     17062     17065     17067
     17064     17062     17065     17068     17065     17068     17071     17072
     17065     17068     17071     17073     17065     17068     17071     17074
     17066     17065     17068     17069     17066     17065     17068     17070
     17066     17065     17068     17071     17067     17065     17068     17069
     17067     17065     17068     17070     17067     17065     17068     17071
     17068     17071     17074     17075     17068     17071     17074     17076
     17068     17071     17074     17077     17069     17068     17071     17072
     17069     17068     17071     17073     17069     17068     17071     17074
     17070     17068     17071     17072     17070     17068     17071     17073
     17070     17068     17071     17074     17071     17074     17077     17078
     17071     17074     17077     17079     17071     17074     17077     17080
     17072     17071     17074     17075     17072     17071     17074     17076
     17072     17071     17074     17077     17073     17071     17074     17075
     17073     17071     17074     17076     17073     17071     17074     17077
     17074     17077     17080     17081     17074     17077     17080     17082
     17074     17077     17080     17083     17075     17074     17077     17078
     17075     17074     17077     17079     17075     17074     17077     17080
     17076     17074     17077     17078     17076     17074     17077     17079
     17076     17074     17077     17080     17077     17080     17083     17084
     17077     17080     17083     17085     17077     17080     17083     17086
     17078     17077     17080     17081     17078     17077     17080     17082
     17078     17077     17080     17083     17079     17077     17080     17081
     17079     17077     17080     17082     17079     17077     17080     17083
     17080     17083     17086     17087     17080     17083     17086     17088
     17080     17083     17086     17089     17081     17080     17083     17084
     17081     17080     17083     17085     17081     17080     17083     17086
     17082     17080     17083     17084     17082     17080     17083     17085
     17082     17080     17083     17086     17083     17086     17089     17090
     17083     17086     17089     17091     17083     17086     17089     17092
     17084     17083     17086     17087     17084     17083     17086     17088
     17084     17083     17086     17089     17085     17083     17086     17087
     17085     17083     17086     17088     17085     17083     17086     17089
     17086     17089     17092     17093     17086     17089     17092     17094
     17086     17089     17092     17095     17087     17086     17089     17090
     17087     17086     17089     17091     17087     17086     17089     17092
     17088     17086     17089     17090     17088     17086     17089     17091
     17088     17086     17089     17092     17089     17092     17095     17096
     17089     17092     17095     17097     17089     17092     17095     17098
     17090     17089     17092     17093     17090     17089     17092     17094
     17090     17089     17092     17095     17091     17089     17092     17093
     17091     17089     17092     17094     17091     17089     17092     17095
     17092     17095     17098     17099     17092     17095     17098     17100
     17092     17095     17098     17101     17093     17092     17095     17096
     17093     17092     17095     17097     17093     17092     17095     17098
     17094     17092     17095     17096     17094     17092     17095     17097
     17094     17092     17095     17098     17095     17098     17101     17102
     17095     17098     17101     17103     17095     17098     17101     17104
     17096     17095     17098     17099     17096     17095     17098     17100
     17096     17095     17098     17101     17097     17095     17098     17099
     17097     17095     17098     17100     17097     17095     17098     17101
     17099     17098     17101     17102     17099     17098     17101     17103
     17099     17098     17101     17104     17100     17098     17101     17102
     17100     17098     17101     17103     17100     17098     17101     17104
     17105     17106     17121     17122     17105     17106     17121     17123
     17105     17106     17121     17127     17106     17105     17109     17110
     17106     17105     17109     17111     17106     17105     17109     17112
     17106     17105     17113     17114     17106     17105     17113     17115
     17106     17105     17113     17116     17106     17105     17117     17118
     17106     17105     17117     17119     17106     17105     17117     17120
     17106     17121     17127     17124     17107     17106     17105     17109
     17107     17106     17105     17113     17107     17106     17105     17117
     17107     17106     17121     17122     17107     17106     17121     17123
     17107     17106     17121     17127     17108     17106     17105     17109
     17108     17106     17105     17113     17108     17106     17105     17117
     17108     17106     17121     17122     17108     17106     17121     17123
     17108     17106     17121     17127     17109     17105     17106     17121
     17109     17105     17113     17114     17109     17105     17113     17115
     17109     17105     17113     17116     17109     17105     17117     17118
     17109     17105     17117     17119     17109     17105     17117     17120
     17110     17109     17105     17113     17110     17109     17105     17117
     17111     17109     17105     17113     17111     17109     17105     17117
     17112     17109     17105     17113     17112     17109     17105     17117
     17113     17105     17106     17121     17113     17105     17117     17118
     17113     17105     17117     17119     17113     17105     17117     17120
     17114     17113     17105     17117     17115     17113     17105     17117
     17116     17113     17105     17117     17117     17105     17106     17121
     17121     17127     17124     17125     17121     17127     17124     17126
     17121     17127     17124     17128     17122     17121     17127     17124
     17123     17121     17127     17124     17124     17128     17129     17130
     17124     17128     17129     17131     17124     17128     17129     17132
     17125     17124     17128     17129     17126     17124     17128     17129
     17127     17124     17128     17129     17128     17129     17132     17133
     17128     17129     17132     17134     17128     17129     17132     17140
     17129     17132     17134     17135     17129     17132     17140     17141
     17129     17132     17140     17142     17129     17132     17140     17143
     17130     17129     17132     17133     17130     17129     17132     17134
     17130     17129     17132     17140     17131     17129     17132     17133
     17131     17129     17132     17134     17131     17129     17132     17140
     17132     17134     17135     17136     17132     17134     17135     17137
     17132     17140     17143     17144     17133     17132     17134     17135
     17133     17132     17140     17141     17133     17132     17140     17142
     17133     17132     17140     17143     17134     17132     17140     17141
     17134     17132     17140     17142     17134     17132     17140     17143
     17134     17135     17137     17138     17134     17135     17137     17139
     17134     17135     17137     17149     17135     17134     17132     17140
     17135     17137     17149     17150     17135     17137     17149     17151
     17135     17137     17149     17152     17136     17135     17137     17138
     17136     17135     17137     17139     17136     17135     17137     17149
     17137     17149     17152     17153     17137     17149     17152     17154
     17137     17149     17152     17155     17138     17137     17149     17150
     17138     17137     17149     17151     17138     17137     17149     17152
     17139     17137     17149     17150     17139     17137     17149     17151
     17139     17137     17149     17152     17140     17143     17144     17145
     17140     17143     17144     17146     17141     17140     17143     17144
     17142     17140     17143     17144     17143     17144     17146     17147
     17143     17144     17146     17148     17143     17144     17146     17196
     17144     17146     17196     17197     17144     17146     17196     17198
     17144     17146     17196     17199     17145     17144     17146     17147
     17145     17144     17146     17148     17145     17144     17146     17196
     17146     17196     17199     17200     17146     17196     17199     17201
     17146     17196     17199     17202     17147     17146     17196     17197
     17147     17146     17196     17198     17147     17146     17196     17199
     17148     17146     17196     17197     17148     17146     17196     17198
     17148     17146     17196     17199     17149     17152     17155     17156
     17149     17152     17155     17157     17149     17152     17155     17158
     17150     17149     17152     17153     17150     17149     17152     17154
     17150     17149     17152     17155     17151     17149     17152     17153
     17151     17149     17152     17154     17151     17149     17152     17155
     17152     17155     17158     17159     17152     17155     17158     17160
     17152     17155     17158     17161     17153     17152     17155     17156
     17153     17152     17155     17157     17153     17152     17155     17158
     17154     17152     17155     17156     17154     17152     17155     17157
     17154     17152     17155     17158     17155     17158     17161     17162
     17155     17158     17161     17163     17155     17158     17161     17164
     17156     17155     17158     17159     17156     17155     17158     17160
     17156     17155     17158     17161     17157     17155     17158     17159
     17157     17155     17158     17160     17157     17155     17158     17161
     17158     17161     17164     17165     17158     17161     17164     17166
     17158     17161     17164     17167     17159     17158     17161     17162
     17159     17158     17161     17163     17159     17158     17161     17164
     17160     17158     17161     17162     17160     17158     17161     17163
     17160     17158     17161     17164     17161     17164     17167     17168
     17161     17164     17167     17169     17162     17161     17164     17165
     17162     17161     17164     17166     17162     17161     17164     17167
     17163     17161     17164     17165     17163     17161     17164     17166
     17163     17161     17164     17167     17164     17167     17169     17170
     17164     17167     17169     17171     17165     17164     17167     17168
     17165     17164     17167     17169     17166     17164     17167     17168
     17166     17164     17167     17169     17167     17169     17171     17172
     17167     17169     17171     17173     17167     17169     17171     17174
     17168     17167     17169     17170     17168     17167     17169     17171
     17169     17171     17174     17175     17169     17171     17174     17176
     17169     17171     17174     17177     17170     17169     17171     17172
     17170     17169     17171     17173     17170     17169     17171     17174
     17171     17174     17177     17178     17171     17174     17177     17179
     17171     17174     17177     17180     17172     17171     17174     17175
     17172     17171     17174     17176     17172     17171     17174     17177
     17173     17171     17174     17175     17173     17171     17174     17176
     17173     17171     17174     17177     17174     17177     17180     17181
     17174     17177     17180     17182     17174     17177     17180     17183
     17175     17174     17177     17178     17175     17174     17177     17179
     17175     17174     17177     17180     17176     17174     17177     17178
     17176     17174     17177     17179     17176     17174     17177     17180
     17177     17180     17183     17184     17177     17180     17183     17185
     17177     17180     17183     17186     17178     17177     17180     17181
     17178     17177     17180     17182     17178     17177     17180     17183
     17179     17177     17180     17181     17179     17177     17180     17182
     17179     17177     17180     17183     17180     17183     17186     17187
     17180     17183     17186     17188     17180     17183     17186     17189
     17181     17180     17183     17184     17181     17180     17183     17185
     17181     17180     17183     17186     17182     17180     17183     17184
     17182     17180     17183     17185     17182     17180     17183     17186
     17183     17186     17189     17190     17183     17186     17189     17191
     17183     17186     17189     17192     17184     17183     17186     17187
     17184     17183     17186     17188     17184     17183     17186     17189
     17185     17183     17186     17187     17185     17183     17186     17188
     17185     17183     17186     17189     17186     17189     17192     17193
     17186     17189     17192     17194     17186     17189     17192     17195
     17187     17186     17189     17190     17187     17186     17189     17191
     17187     17186     17189     17192     17188     17186     17189     17190
     17188     17186     17189     17191     17188     17186     17189     17192
     17190     17189     17192     17193     17190     17189     17192     17194
     17190     17189     17192     17195     17191     17189     17192     17193
     17191     17189     17192     17194     17191     17189     17192     17195
     17196     17199     17202     17203     17196     17199     17202     17204
     17196     17199     17202     17205     17197     17196     17199     17200
     17197     17196     17199     17201     17197     17196     17199     17202
     17198     17196     17199     17200     17198     17196     17199     17201
     17198     17196     17199     17202     17199     17202     17205     17206
     17199     17202     17205     17207     17199     17202     17205     17208
     17200     17199     17202     17203     17200     17199     17202     17204
     17200     17199     17202     17205     17201     17199     17202     17203
     17201     17199     17202     17204     17201     17199     17202     17205
     17202     17205     17208     17209     17202     17205     17208     17210
     17202     17205     17208     17211     17203     17202     17205     17206
     17203     17202     17205     17207     17203     17202     17205     17208
     17204     17202     17205     17206     17204     17202     17205     17207
     17204     17202     17205     17208     17205     17208     17211     17212
     17205     17208     17211     17213     17205     17208     17211     17214
     17206     17205     17208     17209     17206     17205     17208     17210
     17206     17205     17208     17211     17207     17205     17208     17209
     17207     17205     17208     17210     17207     17205     17208     17211
     17208     17211     17214     17215     17208     17211     17214     17216
     17208     17211     17214     17217     17209     17208     17211     17212
     17209     17208     17211     17213     17209     17208     17211     17214
     17210     17208     17211     17212     17210     17208     17211     17213
     17210     17208     17211     17214     17211     17214     17217     17218
     17211     17214     17217     17219     17211     17214     17217     17220
     17212     17211     17214     17215     17212     17211     17214     17216
     17212     17211     17214     17217     17213     17211     17214     17215
     17213     17211     17214     17216     17213     17211     17214     17217
     17214     17217     17220     17221     17214     17217     17220     17222
     17214     17217     17220     17223     17215     17214     17217     17218
     17215     17214     17217     17219     17215     17214     17217     17220
     17216     17214     17217     17218     17216     17214     17217     17219
     17216     17214     17217     17220     17217     17220     17223     17224
     17217     17220     17223     17225     17217     17220     17223     17226
     17218     17217     17220     17221     17218     17217     17220     17222
     17218     17217     17220     17223     17219     17217     17220     17221
     17219     17217     17220     17222     17219     17217     17220     17223
     17220     17223     17226     17227     17220     17223     17226     17228
     17220     17223     17226     17229     17221     17220     17223     17224
     17221     17220     17223     17225     17221     17220     17223     17226
     17222     17220     17223     17224     17222     17220     17223     17225
     17222     17220     17223     17226     17223     17226     17229     17230
     17223     17226     17229     17231     17223     17226     17229     17232
     17224     17223     17226     17227     17224     17223     17226     17228
     17224     17223     17226     17229     17225     17223     17226     17227
     17225     17223     17226     17228     17225     17223     17226     17229
     17226     17229     17232     17233     17226     17229     17232     17234
     17226     17229     17232     17235     17227     17226     17229     17230
     17227     17226     17229     17231     17227     17226     17229     17232
     17228     17226     17229     17230     17228     17226     17229     17231
     17228     17226     17229     17232     17229     17232     17235     17236
     17229     17232     17235     17237     17229     17232     17235     17238
     17230     17229     17232     17233     17230     17229     17232     17234
     17230     17229     17232     17235     17231     17229     17232     17233
     17231     17229     17232     17234     17231     17229     17232     17235
     17233     17232     17235     17236     17233     17232     17235     17237
     17233     17232     17235     17238     17234     17232     17235     17236
     17234     17232     17235     17237     17234     17232     17235     17238

       286 !NIMPHI: impropers
        31        30        33        32        40        39        42        41
       158       157       160       159       167       166       169       168
       141       139       143       142       285       284       287       286
       294       293       296       295       268       266       270       269
       419       418       421       420       428       427       430       429
       553       552       555       554       562       561       564       563
       687       686       689       688       696       695       698       697
       814       813       816       815       823       822       825       824
       797       795       799       798       948       947       950       949
       957       956       959       958      1082      1081      1084      1083
      1091      1090      1093      1092      1216      1215      1218      1217
      1225      1224      1227      1226      1350      1349      1352      1351
      1359      1358      1361      1360      1484      1483      1486      1485
      1493      1492      1495      1494      1611      1610      1613      1612
      1620      1619      1622      1621      1594      1592      1596      1595
      1745      1744      1747      1746      1754      1753      1756      1755
      1879      1878      1881      1880      1888      1887      1890      1889
      2013      2012      2015      2014      2022      2021      2024      2023
      2147      2146      2149      2148      2156      2155      2158      2157
      2281      2280      2283      2282      2290      2289      2292      2291
      2415      2414      2417      2416      2424      2423      2426      2425
      2549      2548      2551      2550      2558      2557      2560      2559
      2683      2682      2685      2684      2692      2691      2694      2693
      2817      2816      2819      2818      2826      2825      2828      2827
      2951      2950      2953      2952      2960      2959      2962      2961
      3085      3084      3087      3086      3094      3093      3096      3095
      3212      3211      3214      3213      3221      3220      3223      3222
      3195      3193      3197      3196      3346      3345      3348      3347
      3355      3354      3357      3356      3480      3479      3482      3481
      3489      3488      3491      3490      3614      3613      3616      3615
      3623      3622      3625      3624      3748      3747      3750      3749
      3757      3756      3759      3758      3882      3881      3884      3883
      3891      3890      3893      3892      4009      4008      4011      4010
      4018      4017      4020      4019      3992      3990      3994      3993
      4143      4142      4145      4144      4152      4151      4154      4153
      4277      4276      4279      4278      4286      4285      4288      4287
      4411      4410      4413      4412      4420      4419      4422      4421
      4545      4544      4547      4546      4554      4553      4556      4555
      4679      4678      4681      4680      4688      4687      4690      4689
      4806      4805      4808      4807      4815      4814      4817      4816
      4789      4787      4791      4790      4940      4939      4942      4941
      4949      4948      4951      4950      5074      5073      5076      5075
      5083      5082      5085      5084      5208      5207      5210      5209
      5217      5216      5219      5218      5342      5341      5344      5343
      5351      5350      5353      5352      5476      5475      5478      5477
      5485      5484      5487      5486      5610      5609      5612      5611
      5619      5618      5621      5620      5744      5743      5746      5745
      5753      5752      5755      5754      5878      5877      5880      5879
      5887      5886      5889      5888      6012      6011      6014      6013
      6021      6020      6023      6022      6146      6145      6148      6147
      6155      6154      6157      6156      6280      6279      6282      6281
      6289      6288      6291      6290      6407      6406      6409      6408
      6416      6415      6418      6417      6390      6388      6392      6391
      6534      6533      6536      6535      6543      6542      6545      6544
      6517      6515      6519      6518      6661      6660      6663      6662
      6670      6669      6672      6671      6644      6642      6646      6645
      6795      6794      6797      6796      6804      6803      6806      6805
      6929      6928      6931      6930      6938      6937      6940      6939
      7063      7062      7065      7064      7072      7071      7074      7073
      7190      7189      7192      7191      7199      7198      7201      7200
      7173      7171      7175      7174      7324      7323      7326      7325
      7333      7332      7335      7334      7458      7457      7460      7459
      7467      7466      7469      7468      7585      7584      7587      7586
      7594      7593      7596      7595      7568      7566      7570      7569
      7719      7718      7721      7720      7728      7727      7730      7729
      7853      7852      7855      7854      7862      7861      7864      7863
      7987      7986      7989      7988      7996      7995      7998      7997
      8121      8120      8123      8122      8130      8129      8132      8131
      8255      8254      8257      8256      8264      8263      8266      8265
      8382      8381      8384      8383      8391      8390      8393      8392
      8365      8363      8367      8366      8516      8515      8518      8517
      8525      8524      8527      8526      8650      8649      8652      8651
      8659      8658      8661      8660      8784      8783      8786      8785
      8793      8792      8795      8794      8911      8910      8913      8912
      8920      8919      8922      8921      8894      8892      8896      8895
      9038      9037      9040      9039      9047      9046      9049      9048
      9021      9019      9023      9022      9172      9171      9174      9173
      9181      9180      9183      9182      9306      9305      9308      9307
      9315      9314      9317      9316      9440      9439      9442      9441
      9449      9448      9451      9450      9574      9573      9576      9575
      9583      9582      9585      9584      9708      9707      9710      9709
      9717      9716      9719      9718      9842      9841      9844      9843
      9851      9850      9853      9852      9969      9968      9971      9970
      9978      9977      9980      9979      9952      9950      9954      9953
     10103     10102     10105     10104     10112     10111     10114     10113
     10230     10229     10232     10231     10239     10238     10241     10240
     10213     10211     10215     10214     10357     10356     10359     10358
     10366     10365     10368     10367     10340     10338     10342     10341
     10491     10490     10493     10492     10500     10499     10502     10501
     10625     10624     10627     10626     10634     10633     10636     10635
     10752     10751     10754     10753     10761     10760     10763     10762
     10735     10733     10737     10736     10886     10885     10888     10887
     10895     10894     10897     10896     11020     11019     11022     11021
     11029     11028     11031     11030     11154     11153     11156     11155
     11163     11162     11165     11164     11281     11280     11283     11282
     11290     11289     11292     11291     11264     11262     11266     11265
     11415     11414     11417     11416     11424     11423     11426     11425
     11549     11548     11551     11550     11558     11557     11560     11559
     11683     11682     11685     11684     11692     11691     11694     11693
     11817     11816     11819     11818     11826     11825     11828     11827
     11951     11950     11953     11952     11960     11959     11962     11961
     12085     12084     12087     12086     12094     12093     12096     12095
     12219     12218     12221     12220     12228     12227     12230     12229
     12353     12352     12355     12354     12362     12361     12364     12363
     12487     12486     12489     12488     12496     12495     12498     12497
     12621     12620     12623     12622     12630     12629     12632     12631
     12755     12754     12757     12756     12764     12763     12766     12765
     12889     12888     12891     12890     12898     12897     12900     12899
     13023     13022     13025     13024     13032     13031     13034     13033
     13157     13156     13159     13158     13166     13165     13168     13167
     13291     13290     13293     13292     13300     13299     13302     13301
     13425     13424     13427     13426     13434     13433     13436     13435
     13552     13551     13554     13553     13561     13560     13563     13562
     13535     13533     13537     13536     13686     13685     13688     13687
     13695     13694     13697     13696     13813     13812     13815     13814
     13822     13821     13824     13823     13796     13794     13798     13797
     13947     13946     13949     13948     13956     13955     13958     13957
     14081     14080     14083     14082     14090     14089     14092     14091
     14208     14207     14210     14209     14217     14216     14219     14218
     14191     14189     14193     14192     14342     14341     14344     14343
     14351     14350     14353     14352     14476     14475     14478     14477
     14485     14484     14487     14486     14603     14602     14605     14604
     14612     14611     14614     14613     14586     14584     14588     14587
     14737     14736     14739     14738     14746     14745     14748     14747
     14871     14870     14873     14872     14880     14879     14882     14881
     14998     14997     15000     14999     15007     15006     15009     15008
     14981     14979     14983     14982     15132     15131     15134     15133
     15141     15140     15143     15142     15266     15265     15268     15267
     15275     15274     15277     15276     15400     15399     15402     15401
     15409     15408     15411     15410     15527     15526     15529     15528
     15536     15535     15538     15537     15510     15508     15512     15511
     15661     15660     15663     15662     15670     15669     15672     15671
     15795     15794     15797     15796     15804     15803     15806     15805
     15929     15928     15931     15930     15938     15937     15940     15939
     16063     16062     16065     16064     16072     16071     16074     16073
     16197     16196     16199     16198     16206     16205     16208     16207
     16331     16330     16333     16332     16340     16339     16342     16341
     16465     16464     16467     16466     16474     16473     16476     16475
     16599     16598     16601     16600     16608     16607     16610     16609
     16733     16732     16735     16734     16742     16741     16744     16743
     16867     16866     16869     16868     16876     16875     16878     16877
     17001     17000     17003     17002     17010     17009     17012     17011
     17135     17134     17137     17136     17144     17143     17146     17145

         0 !NDON: donors


         0 !NACC: acceptors


         0 !NNB

         0         0         0         0         0         0         0         0
         0         0         0         0         0         0         0         0
         0         0         0         0         0         0         0         0
         0         0         0         0         0         0         0         0
         0         0         0         0         0         0         0         0
         0         0         0         0         0         0         0         0
         0         0         0         0         0         0         0         0
         0         0         0         0         0         0         0         0
         0         0         0         0         0         0         0         0
         0         0         0         0         0         0         0         0
         0         0         0         0         0         0         0         0
         0         0         0         0         0         0         0         0
         0         0         0         0         0         0         0         0
         0         0         0         0         0         0         0         0
         0         0         0         0         0         0         0         0
         0         0         0         0         0         0         0         0
         0         0         0         0         0         0         0         0
         0         0         0         0         0         0         0         0
         0         0         0         0         0         0         0         0
         0         0         0         0         0         0         0         0
         0         0         0         0         0         0         0         0
         0         0         0         0         0         0         0         0
         0         0         0         0         0         0         0         0
         0         0         0         0         0         0         0         0
         0         0         0         0         0         0         0         0
         0         0         0         0         0         0         0         0
         0         0         0         0         0         0         0         0
         0         0         0         0         0         0         0         0
         0         0         0         0         0         0         0         0
         0         0         0         0         0         0         0         0
         0         0         0         0         0         0         0         0
         0         0         0         0         0         0         0         0
         0         0         0         0         0         0         0         0
         0         0         0         0         0         0         0         0
         0         0         0         0         0         0         0         0
         0         0         0         0         0         0         0         0
         0         0         0         0         0         0         0         0
         0         0         0         0         0         0         0         0
         0         0         0         0         0         0         0         0
         0         0         0         0         0         0         0         0
         0         0         0         0         0         0         0         0
         0         0         0         0         0         0         0         0
         0         0         0         0         0         0         0         0
         0         0         0         0         0         0         0         0
         0         0         0         0         0         0         0         0
         0         0         0         0         0         0         0         0
         0         0         0         0         0         0         0         0
         0         0         0         0         0         0         0         0
         0         0         0         0         0         0         0         0
         0         0         0         0         0         0         0         0
         0         0         0         0         0         0         0         0
         0         0         0         0         0         0         0         0
         0         0         0         0         0         0         0         0
         0         0         0         0         0         0         0         0
         0         0         0         0         0         0         0         0
         0         0         0         0         0         0         0         0
         0         0         0         0         0         0         0         0
         0         0         0         0         0         0         0         0
         0         0         0         0         0         0         0         0
         0         0         0         0         0         0         0         0
         0         0         0         0         0         0         0         0
         0         0         0         0         0         0         0         0
         0         0         0         0         0         0         0         0
         0         0         0         0         0         0         0         0
         0         0         0         0         0         0         0         0
         0         0         0         0         0         0         0         0
         0         0         0         0         0         0         0         0
         0         0         0         0         0         0         0         0
         0         0         0         0         0         0         0         0
         0         0         0         0         0         0         0         0
         0         0         0         0         0         0         0         0
         0         0         0         0         0         0         0         0
         0         0         0         0         0         0         0         0
         0         0         0         0         0         0         0         0
         0         0         0         0         0         0         0         0
         0         0         0         0         0         0         0         0
         0         0         0         0         0         0         0         0
         0         0         0         0         0         0         0         0
         0         0         0         0         0         0         0         0
         0         0         0         0         0         0         0         0
         0         0         0         0         0         0         0         0
         0         0         0         0         0         0         0         0
         0         0         0         0         0         0         0         0
         0         0         0         0         0         0         0         0
         0         0         0         0         0         0         0         0
         0         0         0         0         0         0         0         0
         0         0         0         0         0         0         0         0
         0         0         0         0         0         0         0         0
         0         0         0         0         0         0         0         0
         0         0         0         0         0         0         0         0
         0         0         0         0         0         0         0         0
         0         0         0         0         0         0         0         0
         0         0         0         0         0         0         0         0
         0         0         0         0         0         0         0         0
         0         0         0         0         0         0         0         0
         0         0         0         0         0         0         0         0
         0         0         0         0         0         0         0         0
         0         0         0         0         0         0         0         0
         0         0         0         0         0         0         0         0
         0         0         0         0         0         0         0         0
         0         0         0         0         0         0         0         0
         0         0         0         0         0         0         0         0
         0         0         0         0         0         0         0         0
         0         0         0         0         0         0         0         0
         0         0         0         0         0         0         0         0
         0         0         0         0         0         0         0         0
         0         0         0         0         0         0         0         0
         0         0         0         0         0         0         0         0
         0         0         0         0         0         0         0         0
         0         0         0         0         0         0         0         0
         0         0         0         0         0         0         0         0
         0         0         0         0         0         0         0         0
         0         0         0         0         0         0         0         0
         0         0         0         0         0         0         0         0
         0         0         0         0         0         0         0         0
         0         0         0         0         0         0         0         0
         0         0         0         0         0         0         0         0
         0         0         0         0         0         0         0         0
         0         0         0         0         0         0         0         0
         0         0         0         0         0         0         0         0
         0         0         0         0         0         0         0         0
         0         0         0         0         0         0         0         0
         0         0         0         0         0         0         0         0
         0         0         0         0         0         0         0         0
         0         0         0         0         0         0         0         0
         0         0         0         0         0         0         0         0
         0         0         0         0         0         0         0         0
         0         0         0         0         0         0         0         0
         0         0         0         0         0         0         0         0
         0         0         0         0         0         0         0         0
         0         0         0         0         0         0         0         0
         0         0         0         0         0         0         0         0
         0         0         0         0         0         0         0         0
         0         0         0         0         0         0         0         0
         0         0         0         0         0         0         0         0
         0         0         0         0         0         0         0         0
         0         0         0         0         0         0         0         0
         0         0         0         0         0         0         0         0
         0         0         0         0         0         0         0         0
         0         0         0         0         0         0         0         0
         0         0         0         0         0         0         0         0
         0         0         0         0         0         0         0         0
         0         0         0         0         0         0         0         0
         0         0         0         0         0         0         0         0
         0         0         0         0         0         0         0         0
         0         0         0         0         0         0         0         0
         0         0         0         0         0         0         0         0
         0         0         0         0         0         0         0         0
         0         0         0         0         0         0         0         0
         0         0         0         0         0         0         0         0
         0         0         0         0         0         0         0         0
         0         0         0         0         0         0         0         0
         0         0         0         0         0         0         0         0
         0         0         0         0         0         0         0         0
         0         0         0         0         0         0         0         0
         0         0         0         0         0         0         0         0
         0         0         0         0         0         0         0         0
         0         0         0         0         0         0         0         0
         0         0         0         0         0         0         0         0
         0         0         0         0         0         0         0         0
         0         0         0         0         0         0         0         0
         0         0         0         0         0         0         0         0
         0         0         0         0         0         0         0         0
         0         0         0         0         0         0         0         0
         0         0         0         0         0         0         0         0
         0         0         0         0         0         0         0         0
         0         0         0         0         0         0         0         0
         0         0         0         0         0         0         0         0
         0         0         0         0         0         0         0         0
         0         0         0         0         0         0         0         0
         0         0         0         0         0         0         0         0
         0         0         0         0         0         0         0         0
         0         0         0         0         0         0         0         0
         0         0         0         0         0         0         0         0
         0         0         0         0         0         0         0         0
         0         0         0         0         0         0         0         0
         0         0         0         0         0         0         0         0
         0         0         0         0         0         0         0         0
         0         0         0         0         0         0         0         0
         0         0         0         0         0         0         0         0
         0         0         0         0         0         0         0         0
         0         0         0         0         0         0         0         0
         0         0         0         0         0         0         0         0
         0         0         0         0         0         0         0         0
         0         0         0         0         0         0         0         0
         0         0         0         0         0         0         0         0
         0         0         0         0         0         0         0         0
         0         0         0         0         0         0         0         0
         0         0         0         0         0         0         0         0
         0         0         0         0         0         0         0         0
         0         0         0         0         0         0         0         0
         0         0         0         0         0         0         0         0
         0         0         0         0         0         0         0         0
         0         0         0         0         0         0         0         0
         0         0         0         0         0         0         0         0
         0         0         0         0         0         0         0         0
         0         0         0         0         0         0         0         0
         0         0         0         0         0         0         0         0
         0         0         0         0         0         0         0         0
         0         0         0         0         0         0         0         0
         0         0         0         0         0         0         0         0
         0         0         0         0         0         0         0         0
         0         0         0         0         0         0         0         0
         0         0         0         0         0         0         0         0
         0         0         0         0         0         0         0         0
         0         0         0         0         0         0         0         0
         0         0         0         0         0         0         0         0
         0         0         0         0         0         0         0         0
         0         0         0         0         0         0         0         0
         0         0         0         0         0         0         0         0
         0         0         0         0         0         0         0         0
         0         0         0         0         0         0         0         0
         0         0         0         0         0         0         0         0
         0         0         0         0         0         0         0         0
         0         0         0         0         0         0         0         0
         0         0         0         0         0         0         0         0
         0         0         0         0         0         0         0         0
         0         0         0         0         0         0         0         0
         0         0         0         0         0         0         0         0
         0         0         0         0         0         0         0         0
         0         0         0         0         0         0         0         0
         0         0         0         0         0         0         0         0
         0         0         0         0         0         0         0         0
         0         0         0         0         0         0         0         0
         0         0         0         0         0         0         0         0
         0         0         0         0         0         0         0         0
         0         0         0         0         0         0         0         0
         0         0         0         0         0         0         0         0
         0         0         0         0         0         0         0         0
         0         0         0         0         0         0         0         0
         0         0         0         0         0         0         0         0
         0         0         0         0         0         0         0         0
         0         0         0         0         0         0         0         0
         0         0         0         0         0         0         0         0
         0         0         0         0         0         0         0         0
         0         0         0         0         0         0         0         0
         0         0         0         0         0         0         0         0
         0         0         0         0         0         0         0         0
         0         0         0         0         0         0         0         0
         0         0         0         0         0         0         0         0
         0         0         0         0         0         0         0         0
         0         0         0         0         0         0         0         0
         0         0         0         0         0         0         0         0
         0         0         0         0         0         0         0         0
         0         0         0         0         0         0         0         0
         0         0         0         0         0         0         0         0
         0         0         0         0         0         0         0         0
         0         0         0         0         0         0         0         0
         0         0         0         0         0         0         0         0
         0         0         0         0         0         0         0         0
         0         0         0         0         0         0         0         0
         0         0         0         0         0         0         0         0
         0         0         0         0         0         0         0         0
         0         0         0         0         0         0         0         0
         0         0         0         0         0         0         0         0
         0         0         0         0         0         0         0         0
         0         0         0         0         0         0         0         0
         0         0         0         0         0         0         0         0
         0         0         0         0         0         0         0         0
         0         0         0         0         0         0         0         0
         0         0         0         0         0         0         0         0
         0         0         0         0         0         0         0         0
         0         0         0         0         0         0         0         0
         0         0         0         0         0         0         0         0
         0         0         0         0         0         0         0         0
         0         0         0         0         0         0         0         0
         0         0         0         0         0         0         0         0
         0         0         0         0         0         0         0         0
         0         0         0         0         0         0         0         0
         0         0         0         0         0         0         0         0
         0         0         0         0         0         0         0         0
         0         0         0         0         0         0         0         0
         0         0         0         0         0         0         0         0
         0         0         0         0         0         0         0         0
         0         0         0         0         0         0         0         0
         0         0         0         0         0         0         0         0
         0         0         0         0         0         0         0         0
         0         0         0         0         0         0         0         0
         0         0         0         0         0         0         0         0
         0         0         0         0         0         0         0         0
         0         0         0         0         0         0         0         0
         0         0         0         0         0         0         0         0
         0         0         0         0         0         0         0         0
         0         0         0         0         0         0         0         0
         0         0         0         0         0         0         0         0
         0         0         0         0         0         0         0         0
         0         0         0         0         0         0         0         0
         0         0         0         0         0         0         0         0
         0         0         0         0         0         0         0         0
         0         0         0         0         0         0         0         0
         0         0         0         0         0         0         0         0
         0         0         0         0         0         0         0         0
         0         0         0         0         0         0         0         0
         0         0         0         0         0         0         0         0
         0         0         0         0         0         0         0         0
         0         0         0         0         0         0         0         0
         0         0         0         0         0         0         0         0
         0         0         0         0         0         0         0         0
         0         0         0         0         0         0         0         0
         0         0         0         0         0         0         0         0
         0         0         0         0         0         0         0         0
         0         0         0         0         0         0         0         0
         0         0         0         0         0         0         0         0
         0         0         0         0         0         0         0         0
         0         0         0         0         0         0         0         0
         0         0         0         0         0         0         0         0
         0         0         0         0         0         0         0         0
         0         0         0         0         0         0         0         0
         0         0         0         0         0         0         0         0
         0         0         0         0         0         0         0         0
         0         0         0         0         0         0         0         0
         0         0         0         0         0         0         0         0
         0         0         0         0         0         0         0         0
         0         0         0         0         0         0         0         0
         0         0         0         0         0         0         0         0
         0         0         0         0         0         0         0         0
         0         0         0         0         0         0         0         0
         0         0         0         0         0         0         0         0
         0         0         0         0         0         0         0         0
         0         0         0         0         0         0         0         0
         0         0         0         0         0         0         0         0
         0         0         0         0         0         0         0         0
         0         0         0         0         0         0         0         0
         0         0         0         0         0         0         0         0
         0         0         0         0         0         0         0         0
         0         0         0         0         0         0         0         0
         0         0         0         0         0         0         0         0
         0         0         0         0         0         0         0         0
         0         0         0         0         0         0         0         0
         0         0         0         0         0         0         0         0
         0         0         0         0         0         0         0         0
         0         0         0         0         0         0         0         0
         0         0         0         0         0         0         0         0
         0         0         0         0         0         0         0         0
         0         0         0         0         0         0         0         0
         0         0         0         0         0         0         0         0
         0         0         0         0         0         0         0         0
         0         0         0         0         0         0         0         0
         0         0         0         0         0         0         0         0
         0         0         0         0         0         0         0         0
         0         0         0         0         0         0         0         0
         0         0         0         0         0         0         0         0
         0         0         0         0         0         0         0         0
         0         0         0         0         0         0         0         0
         0         0         0         0         0         0         0         0
         0         0         0         0         0         0         0         0
         0         0         0         0         0         0         0         0
         0         0         0         0         0         0         0         0
         0         0         0         0         0         0         0         0
         0         0         0         0         0         0         0         0
         0         0         0         0         0         0         0         0
         0         0         0         0         0         0         0         0
         0         0         0         0         0         0         0         0
         0         0         0         0         0         0         0         0
         0         0         0         0         0         0         0         0
         0         0         0         0         0         0         0         0
         0         0         0         0         0         0         0         0
         0         0         0         0         0         0         0         0
         0         0         0         0         0         0         0         0
         0         0         0         0         0         0         0         0
         0         0         0         0         0         0         0         0
         0         0         0         0         0         0         0         0
         0         0         0         0         0         0         0         0
         0         0         0         0         0         0         0         0
         0         0         0         0         0         0         0         0
         0         0         0         0         0         0         0         0
         0         0         0         0         0         0         0         0
         0         0         0         0         0         0         0         0
         0         0         0         0         0         0         0         0
         0         0         0         0         0         0         0         0
         0         0         0         0         0         0         0         0
         0         0         0         0         0         0         0         0
         0         0         0         0         0         0         0         0
         0         0         0         0         0         0         0         0
         0         0         0         0         0         0         0         0
         0         0         0         0         0         0         0         0
         0         0         0         0         0         0         0         0
         0         0         0         0         0         0         0         0
         0         0         0         0         0         0         0         0
         0         0         0         0         0         0         0         0
         0         0         0         0         0         0         0         0
         0         0         0         0         0         0         0         0
         0         0         0         0         0         0         0         0
         0         0         0         0         0         0         0         0
         0         0         0         0         0         0         0         0
         0         0         0         0         0         0         0         0
         0         0         0         0         0         0         0         0
         0         0         0         0         0         0         0         0
         0         0         0         0         0         0         0         0
         0         0         0         0         0         0         0         0
         0         0         0         0         0         0         0         0
         0         0         0         0         0         0         0         0
         0         0         0         0         0         0         0         0
         0         0         0         0         0         0         0         0
         0         0         0         0         0         0         0         0
         0         0         0         0         0         0         0         0
         0         0         0         0         0         0         0         0
         0         0         0         0         0         0         0         0
         0         0         0         0         0         0         0         0
         0         0         0         0         0         0         0         0
         0         0         0         0         0         0         0         0
         0         0         0         0         0         0         0         0
         0         0         0         0         0         0         0         0
         0         0         0         0         0         0         0         0
         0         0         0         0         0         0         0         0
         0         0         0         0         0         0         0         0
         0         0         0         0         0         0         0         0
         0         0         0         0         0         0         0         0
         0         0         0         0         0         0         0         0
         0         0         0         0         0         0         0         0
         0         0         0         0         0         0         0         0
         0         0         0         0         0         0         0         0
         0         0         0         0         0         0         0         0
         0         0         0         0         0         0         0         0
         0         0         0         0         0         0         0         0
         0         0         0         0         0         0         0         0
         0         0         0         0         0         0         0         0
         0         0         0         0         0         0         0         0
         0         0         0         0         0         0         0         0
         0         0         0         0         0         0         0         0
         0         0         0         0         0         0         0         0
         0         0         0         0         0         0         0         0
         0         0         0         0         0         0         0         0
         0         0         0         0         0         0         0         0
         0         0         0         0         0         0         0         0
         0         0         0         0         0         0         0         0
         0         0         0         0         0         0         0         0
         0         0         0         0         0         0         0         0
         0         0         0         0         0         0         0         0
         0         0         0         0         0         0         0         0
         0         0         0         0         0         0         0         0
         0         0         0         0         0         0         0         0
         0         0         0         0         0         0         0         0
         0         0         0         0         0         0         0         0
         0         0         0         0         0         0         0         0
         0         0         0         0         0         0         0         0
         0         0         0         0         0         0         0         0
         0         0         0         0         0         0         0         0
         0         0         0         0         0         0         0         0
         0         0         0         0         0         0         0         0
         0         0         0         0         0         0         0         0
         0         0         0         0         0         0         0         0
         0         0         0         0         0         0         0         0
         0         0         0         0         0         0         0         0
         0         0         0         0         0         0         0         0
         0         0         0         0         0         0         0         0
         0         0         0         0         0         0         0         0
         0         0         0         0         0         0         0         0
         0         0         0         0         0         0         0         0
         0         0         0         0         0         0         0         0
         0         0         0         0         0         0         0         0
         0         0         0         0         0         0         0         0
         0         0         0         0         0         0         0         0
         0         0         0         0         0         0         0         0
         0         0         0         0         0         0         0         0
         0         0         0         0         0         0         0         0
         0         0         0         0         0         0         0         0
         0         0         0         0         0         0         0         0
         0         0         0         0         0         0         0         0
         0         0         0         0         0         0         0         0
         0         0         0         0         0         0         0         0
         0         0         0         0         0         0         0         0
         0         0         0         0         0         0         0         0
         0         0         0         0         0         0         0         0
         0         0         0         0         0         0         0         0
         0         0         0         0         0         0         0         0
         0         0         0         0         0         0         0         0
         0         0         0         0         0         0         0         0
         0         0         0         0         0         0         0         0
         0         0         0         0         0         0         0         0
         0         0         0         0         0         0         0         0
         0         0         0         0         0         0         0         0
         0         0         0         0         0         0         0         0
         0         0         0         0         0         0         0         0
         0         0         0         0         0         0         0         0
         0         0         0         0         0         0         0         0
         0         0         0         0         0         0         0         0
         0         0         0         0         0         0         0         0
         0         0         0         0         0         0         0         0
         0         0         0         0         0         0         0         0
         0         0         0         0         0         0         0         0
         0         0         0         0         0         0         0         0
         0         0         0         0         0         0         0         0
         0         0         0         0         0         0         0         0
         0         0         0         0         0         0         0         0
         0         0         0         0         0         0         0         0
         0         0         0         0         0         0         0         0
         0         0         0         0         0         0         0         0
         0         0         0         0         0         0         0         0
         0         0         0         0         0         0         0         0
         0         0         0         0         0         0         0         0
         0         0         0         0         0         0         0         0
         0         0         0         0         0         0         0         0
         0         0         0         0         0         0         0         0
         0         0         0         0         0         0         0         0
         0         0         0         0         0         0         0         0
         0         0         0         0         0         0         0         0
         0         0         0         0         0         0         0         0
         0         0         0         0         0         0         0         0
         0         0         0         0         0         0         0         0
         0         0         0         0         0         0         0         0
         0         0         0         0         0         0         0         0
         0         0         0         0         0         0         0         0
         0         0         0         0         0         0         0         0
         0         0         0         0         0         0         0         0
         0         0         0         0         0         0         0         0
         0         0         0         0         0         0         0         0
         0         0         0         0         0         0         0         0
         0         0         0         0         0         0         0         0
         0         0         0         0         0         0         0         0
         0         0         0         0         0         0         0         0
         0         0         0         0         0         0         0         0
         0         0         0         0         0         0         0         0
         0         0         0         0         0         0         0         0
         0         0         0         0         0         0         0         0
         0         0         0         0         0         0         0         0
         0         0         0         0         0         0         0         0
         0         0         0         0         0         0         0         0
         0         0         0         0         0         0         0         0
         0         0         0         0         0         0         0         0
         0         0         0         0         0         0         0         0
         0         0         0         0         0         0         0         0
         0         0         0         0         0         0         0         0
         0         0         0         0         0         0         0         0
         0         0         0         0         0         0         0         0
         0         0         0         0         0         0         0         0
         0         0         0         0         0         0         0         0
         0         0         0         0         0         0         0         0
         0         0         0         0         0         0         0         0
         0         0         0         0         0         0         0         0
         0         0         0         0         0         0         0         0
         0         0         0         0         0         0         0         0
         0         0         0         0         0         0         0         0
         0         0         0         0         0         0         0         0
         0         0         0         0         0         0         0         0
         0         0         0         0         0         0         0         0
         0         0         0         0         0         0         0         0
         0         0         0         0         0         0         0         0
         0         0         0         0         0         0         0         0
         0         0         0         0         0         0         0         0
         0         0         0         0         0         0         0         0
         0         0         0         0         0         0         0         0
         0         0         0         0         0         0         0         0
         0         0         0         0         0         0         0         0
         0         0         0         0         0         0         0         0
         0         0         0         0         0         0         0         0
         0         0         0         0         0         0         0         0
         0         0         0         0         0         0         0         0
         0         0         0         0         0         0         0         0
         0         0         0         0         0         0         0         0
         0         0         0         0         0         0         0         0
         0         0         0         0         0         0         0         0
         0         0         0         0         0         0         0         0
         0         0         0         0         0         0         0         0
         0         0         0         0         0         0         0         0
         0         0         0         0         0         0         0         0
         0         0         0         0         0         0         0         0
         0         0         0         0         0         0         0         0
         0         0         0         0         0         0         0         0
         0         0         0         0         0         0         0         0
         0         0         0         0         0         0         0         0
         0         0         0         0         0         0         0         0
         0         0         0         0         0         0         0         0
         0         0         0         0         0         0         0         0
         0         0         0         0         0         0         0         0
         0         0         0         0         0         0         0         0
         0         0         0         0         0         0         0         0
         0         0         0         0         0         0         0         0
         0         0         0         0         0         0         0         0
         0         0         0         0         0         0         0         0
         0         0         0         0         0         0         0         0
         0         0         0         0         0         0         0         0
         0         0         0         0         0         0         0         0
         0         0         0         0         0         0         0         0
         0         0         0         0         0         0         0         0
         0         0         0         0         0         0         0         0
         0         0         0         0         0         0         0         0
         0         0         0         0         0         0         0         0
         0         0         0         0         0         0         0         0
         0         0         0         0         0         0         0         0
         0         0         0         0         0         0         0         0
         0         0         0         0         0         0         0         0
         0         0         0         0         0         0         0         0
         0         0         0         0         0         0         0         0
         0         0         0         0         0         0         0         0
         0         0         0         0         0         0         0         0
         0         0         0         0         0         0         0         0
         0         0         0         0         0         0         0         0
         0         0         0         0         0         0         0         0
         0         0         0         0         0         0         0         0
         0         0         0         0         0         0         0         0
         0         0         0         0         0         0         0         0
         0         0         0         0         0         0         0         0
         0         0         0         0         0         0         0         0
         0         0         0         0         0         0         0         0
         0         0         0         0         0         0         0         0
         0         0         0         0         0         0         0         0
         0         0         0         0         0         0         0         0
         0         0         0         0         0         0         0         0
         0         0         0         0         0         0         0         0
         0         0         0         0         0         0         0         0
         0         0         0         0         0         0         0         0
         0         0         0         0         0         0         0         0
         0         0         0         0         0         0         0         0
         0         0         0         0         0         0         0         0
         0         0         0         0         0         0         0         0
         0         0         0         0         0         0         0         0
         0         0         0         0         0         0         0         0
         0         0         0         0         0         0         0         0
         0         0         0         0         0         0         0         0
         0         0         0         0         0         0         0         0
         0         0         0         0         0         0         0         0
         0         0         0         0         0         0         0         0
         0         0         0         0         0         0         0         0
         0         0         0         0         0         0         0         0
         0         0         0         0         0         0         0         0
         0         0         0         0         0         0         0         0
         0         0         0         0         0         0         0         0
         0         0         0         0         0         0         0         0
         0         0         0         0         0         0         0         0
         0         0         0         0         0         0         0         0
         0         0         0         0         0         0         0         0
         0         0         0         0         0         0         0         0
         0         0         0         0         0         0         0         0
         0         0         0         0         0         0         0         0
         0         0         0         0         0         0         0         0
         0         0         0         0         0         0         0         0
         0         0         0         0         0         0         0         0
         0         0         0         0         0         0         0         0
         0         0         0         0         0         0         0         0
         0         0         0         0         0         0         0         0
         0         0         0         0         0         0         0         0
         0         0         0         0         0         0         0         0
         0         0         0         0         0         0         0         0
         0         0         0         0         0         0         0         0
         0         0         0         0         0         0         0         0
         0         0         0         0         0         0         0         0
         0         0         0         0         0         0         0         0
         0         0         0         0         0         0         0         0
         0         0         0         0         0         0         0         0
         0         0         0         0         0         0         0         0
         0         0         0         0         0         0         0         0
         0         0         0         0         0         0         0         0
         0         0         0         0         0         0         0         0
         0         0         0         0         0         0         0         0
         0         0         0         0         0         0         0         0
         0         0         0         0         0         0         0         0
         0         0         0         0         0         0         0         0
         0         0         0         0         0         0         0         0
         0         0         0         0         0         0         0         0
         0         0         0         0         0         0         0         0
         0         0         0         0         0         0         0         0
         0         0         0         0         0         0         0         0
         0         0         0         0         0         0         0         0
         0         0         0         0         0         0         0         0
         0         0         0         0         0         0         0         0
         0         0         0         0         0         0         0         0
         0         0         0         0         0         0         0         0
         0         0         0         0         0         0         0         0
         0         0         0         0         0         0         0         0
         0         0         0         0         0         0         0         0
         0         0         0         0         0         0         0         0
         0         0         0         0         0         0         0         0
         0         0         0         0         0         0         0         0
         0         0         0         0         0         0         0         0
         0         0         0         0         0         0         0         0
         0         0         0         0         0         0         0         0
         0         0         0         0         0         0         0         0
         0         0         0         0         0         0         0         0
         0         0         0         0         0         0         0         0
         0         0         0         0         0         0         0         0
         0         0         0         0         0         0         0         0
         0         0         0         0         0         0         0         0
         0         0         0         0         0         0         0         0
         0         0         0         0         0         0         0         0
         0         0         0         0         0         0         0         0
         0         0         0         0         0         0         0         0
         0         0         0         0         0         0         0         0
         0         0         0         0         0         0         0         0
         0         0         0         0         0         0         0         0
         0         0         0         0         0         0         0         0
         0         0         0         0         0         0         0         0
         0         0         0         0         0         0         0         0
         0         0         0         0         0         0         0         0
         0         0         0         0         0         0         0         0
         0         0         0         0         0         0         0         0
         0         0         0         0         0         0         0         0
         0         0         0         0         0         0         0         0
         0         0         0         0         0         0         0         0
         0         0         0         0         0         0         0         0
         0         0         0         0         0         0         0         0
         0         0         0         0         0         0         0         0
         0         0         0         0         0         0         0         0
         0         0         0         0         0         0         0         0
         0         0         0         0         0         0         0         0
         0         0         0         0         0         0         0         0
         0         0         0         0         0         0         0         0
         0         0         0         0         0         0         0         0
         0         0         0         0         0         0         0         0
         0         0         0         0         0         0         0         0
         0         0         0         0         0         0         0         0
         0         0         0         0         0         0         0         0
         0         0         0         0         0         0         0         0
         0         0         0         0         0         0         0         0
         0         0         0         0         0         0         0         0
         0         0         0         0         0         0         0         0
         0         0         0         0         0         0         0         0
         0         0         0         0         0         0         0         0
         0         0         0         0         0         0         0         0
         0         0         0         0         0         0         0         0
         0         0         0         0         0         0         0         0
         0         0         0         0         0         0         0         0
         0         0         0         0         0         0         0         0
         0         0         0         0         0         0         0         0
         0         0         0         0         0         0         0         0
         0         0         0         0         0         0         0         0
         0         0         0         0         0         0         0         0
         0         0         0         0         0         0         0         0
         0         0         0         0         0         0         0         0
         0         0         0         0         0         0         0         0
         0         0         0         0         0         0         0         0
         0         0         0         0         0         0         0         0
         0         0         0         0         0         0         0         0
         0         0         0         0         0         0         0         0
         0         0         0         0         0         0         0         0
         0         0         0         0         0         0         0         0
         0         0         0         0         0         0         0         0
         0         0         0         0         0         0         0         0
         0         0         0         0         0         0         0         0
         0         0         0         0         0         0         0         0
         0         0         0         0         0         0         0         0
         0         0         0         0         0         0         0         0
         0         0         0         0         0         0         0         0
         0         0         0         0         0         0         0         0
         0         0         0         0         0         0         0         0
         0         0         0         0         0         0         0         0
         0         0         0         0         0         0         0         0
         0         0         0         0         0         0         0         0
         0         0         0         0         0         0         0         0
         0         0         0         0         0         0         0         0
         0         0         0         0         0         0         0         0
         0         0         0         0         0         0         0         0
         0         0         0         0         0         0         0         0
         0         0         0         0         0         0         0         0
         0         0         0         0         0         0         0         0
         0         0         0         0         0         0         0         0
         0         0         0         0         0         0         0         0
         0         0         0         0         0         0         0         0
         0         0         0         0         0         0         0         0
         0         0         0         0         0         0         0         0
         0         0         0         0         0         0         0         0
         0         0         0         0         0         0         0         0
         0         0         0         0         0         0         0         0
         0         0         0         0         0         0         0         0
         0         0         0         0         0         0         0         0
         0         0         0         0         0         0         0         0
         0         0         0         0         0         0         0         0
         0         0         0         0         0         0         0         0
         0         0         0         0         0         0         0         0
         0         0         0         0         0         0         0         0
         0         0         0         0         0         0         0         0
         0         0         0         0         0         0         0         0
         0         0         0         0         0         0         0         0
         0         0         0         0         0         0         0         0
         0         0         0         0         0         0         0         0
         0         0         0         0         0         0         0         0
         0         0         0         0         0         0         0         0
         0         0         0         0         0         0         0         0
         0         0         0         0         0         0         0         0
         0         0         0         0         0         0         0         0
         0         0         0         0         0         0         0         0
         0         0         0         0         0         0         0         0
         0         0         0         0         0         0         0         0
         0         0         0         0         0         0         0         0
         0         0         0         0         0         0         0         0
         0         0         0         0         0         0         0         0
         0         0         0         0         0         0         0         0
         0         0         0         0         0         0         0         0
         0         0         0         0         0         0         0         0
         0         0         0         0         0         0         0         0
         0         0         0         0         0         0         0         0
         0         0         0         0         0         0         0         0
         0         0         0         0         0         0         0         0
         0         0         0         0         0         0         0         0
         0         0         0         0         0         0         0         0
         0         0         0         0         0         0         0         0
         0         0         0         0         0         0         0         0
         0         0         0         0         0         0         0         0
         0         0         0         0         0         0         0         0
         0         0         0         0         0         0         0         0
         0         0         0         0         0         0         0         0
         0         0         0         0         0         0         0         0
         0         0         0         0         0         0         0         0
         0         0         0         0         0         0         0         0
         0         0         0         0         0         0         0         0
         0         0         0         0         0         0         0         0
         0         0         0         0         0         0         0         0
         0         0         0         0         0         0         0         0
         0         0         0         0         0         0         0         0
         0         0         0         0         0         0         0         0
         0         0         0         0         0         0         0         0
         0         0         0         0         0         0         0         0
         0         0         0         0         0         0         0         0
         0         0         0         0         0         0         0         0
         0         0         0         0         0         0         0         0
         0         0         0         0         0         0         0         0
         0         0         0         0         0         0         0         0
         0         0         0         0         0         0         0         0
         0         0         0         0         0         0         0         0
         0         0         0         0         0         0         0         0
         0         0         0         0         0         0         0         0
         0         0         0         0         0         0         0         0
         0         0         0         0         0         0         0         0
         0         0         0         0         0         0         0         0
         0         0         0         0         0         0         0         0
         0         0         0         0         0         0         0         0
         0         0         0         0         0         0         0         0
         0         0         0         0         0         0         0         0
         0         0         0         0         0         0         0         0
         0         0         0         0         0         0         0         0
         0         0         0         0         0         0         0         0
         0         0         0         0         0         0         0         0
         0         0         0         0         0         0         0         0
         0         0         0         0         0         0         0         0
         0         0         0         0         0         0         0         0
         0         0         0         0         0         0         0         0
         0         0         0         0         0         0         0         0
         0         0         0         0         0         0         0         0
         0         0         0         0         0         0         0         0
         0         0         0         0         0         0         0         0
         0         0         0         0         0         0         0         0
         0         0         0         0         0         0         0         0
         0         0         0         0         0         0         0         0
         0         0         0         0         0         0         0         0
         0         0         0         0         0         0         0         0
         0         0         0         0         0         0         0         0
         0         0         0         0         0         0         0         0
         0         0         0         0         0         0         0         0
         0         0         0         0         0         0         0         0
         0         0         0         0         0         0         0         0
         0         0         0         0         0         0         0         0
         0         0         0         0         0         0         0         0
         0         0         0         0         0         0         0         0
         0         0         0         0         0         0         0         0
         0         0         0         0         0         0         0         0
         0         0         0         0         0         0         0         0
         0         0         0         0         0         0         0         0
         0         0         0         0         0         0         0         0
         0         0         0         0         0         0         0         0
         0         0         0         0         0         0         0         0
         0         0         0         0         0         0         0         0
         0         0         0         0         0         0         0         0
         0         0         0         0         0         0         0         0
         0         0         0         0         0         0         0         0
         0         0         0         0         0         0         0         0
         0         0         0         0         0         0         0         0
         0         0         0         0         0         0         0         0
         0         0         0         0         0         0         0         0
         0         0         0         0         0         0         0         0
         0         0         0         0         0         0         0         0
         0         0         0         0         0         0         0         0
         0         0         0         0         0         0         0         0
         0         0         0         0         0         0         0         0
         0         0         0         0         0         0         0         0
         0         0         0         0         0         0         0         0
         0         0         0         0         0         0         0         0
         0         0         0         0         0         0         0         0
         0         0         0         0         0         0         0         0
         0         0         0         0         0         0         0         0
         0         0         0         0         0         0         0         0
         0         0         0         0         0         0         0         0
         0         0         0         0         0         0         0         0
         0         0         0         0         0         0         0         0
         0         0         0         0         0         0         0         0
         0         0         0         0         0         0         0         0
         0         0         0         0         0         0         0         0
         0         0         0         0         0         0         0         0
         0         0         0         0         0         0         0         0
         0         0         0         0         0         0         0         0
         0         0         0         0         0         0         0         0
         0         0         0         0         0         0         0         0
         0         0         0         0         0         0         0         0
         0         0         0         0         0         0         0         0
         0         0         0         0         0         0         0         0
         0         0         0         0         0         0         0         0
         0         0         0         0         0         0         0         0
         0         0         0         0         0         0         0         0
         0         0         0         0         0         0         0         0
         0         0         0         0         0         0         0         0
         0         0         0         0         0         0         0         0
         0         0         0         0         0         0         0         0
         0         0         0         0         0         0         0         0
         0         0         0         0         0         0         0         0
         0         0         0         0         0         0         0         0
         0         0         0         0         0         0         0         0
         0         0         0         0         0         0         0         0
         0         0         0         0         0         0         0         0
         0         0         0         0         0         0         0         0
         0         0         0         0         0         0         0         0
         0         0         0         0         0         0         0         0
         0         0         0         0         0         0         0         0
         0         0         0         0         0         0         0         0
         0         0         0         0         0         0         0         0
         0         0         0         0         0         0         0         0
         0         0         0         0         0         0         0         0
         0         0         0         0         0         0         0         0
         0         0         0         0         0         0         0         0
         0         0         0         0         0         0         0         0
         0         0         0         0         0         0         0         0
         0         0         0         0         0         0         0         0
         0         0         0         0         0         0         0         0
         0         0         0         0         0         0         0         0
         0         0         0         0         0         0         0         0
         0         0         0         0         0         0         0         0
         0         0         0         0         0         0         0         0
         0         0         0         0         0         0         0         0
         0         0         0         0         0         0         0         0
         0         0         0         0         0         0         0         0
         0         0         0         0         0         0         0         0
         0         0         0         0         0         0         0         0
         0         0         0         0         0         0         0         0
         0         0         0         0         0         0         0         0
         0         0         0         0         0         0         0         0
         0         0         0         0         0         0         0         0
         0         0         0         0         0         0         0         0
         0         0         0         0         0         0         0         0
         0         0         0         0         0         0         0         0
         0         0         0         0         0         0         0         0
         0         0         0         0         0         0         0         0
         0         0         0         0         0         0         0         0
         0         0         0         0         0         0         0         0
         0         0         0         0         0         0         0         0
         0         0         0         0         0         0         0         0
         0         0         0         0         0         0         0         0
         0         0         0         0         0         0         0         0
         0         0         0         0         0         0         0         0
         0         0         0         0         0         0         0         0
         0         0         0         0         0         0         0         0
         0         0         0         0         0         0         0         0
         0         0         0         0         0         0         0         0
         0         0         0         0         0         0         0         0
         0         0         0         0         0         0         0         0
         0         0         0         0         0         0         0         0
         0         0         0         0         0         0         0         0
         0         0         0         0         0         0         0         0
         0         0         0         0         0         0         0         0
         0         0         0         0         0         0         0         0
         0         0         0         0         0         0         0         0
         0         0         0         0         0         0         0         0
         0         0         0         0         0         0         0         0
         0         0         0         0         0         0         0         0
         0         0         0         0         0         0         0         0
         0         0         0         0         0         0         0         0
         0         0         0         0         0         0         0         0
         0         0         0         0         0         0         0         0
         0         0         0         0         0         0         0         0
         0         0         0         0         0         0         0         0
         0         0         0         0         0         0         0         0
         0         0         0         0         0         0         0         0
         0         0         0         0         0         0         0         0
         0         0         0         0         0         0         0         0
         0         0         0         0         0         0         0         0
         0         0         0         0         0         0         0         0
         0         0         0         0         0         0         0         0
         0         0         0         0         0         0         0         0
         0         0         0         0         0         0         0         0
         0         0         0         0         0         0         0         0
         0         0         0         0         0         0         0         0
         0         0         0         0         0         0         0         0
         0         0         0         0         0         0         0         0
         0         0         0         0         0         0         0         0
         0         0         0         0         0         0         0         0
         0         0         0         0         0         0         0         0
         0         0         0         0         0         0         0         0
         0         0         0         0         0         0         0         0
         0         0         0         0         0         0         0         0
         0         0         0         0         0         0         0         0
         0         0         0         0         0         0         0         0
         0         0         0         0         0         0         0         0
         0         0         0         0         0         0         0         0
         0         0         0         0         0         0         0         0
         0         0         0         0         0         0         0         0
         0         0         0         0         0         0         0         0
         0         0         0         0         0         0         0         0
         0         0         0         0         0         0         0         0
         0         0         0         0         0         0         0         0
         0         0         0         0         0         0         0         0
         0         0         0         0         0         0         0         0
         0         0         0         0         0         0         0         0
         0         0         0         0         0         0         0         0
         0         0         0         0         0         0         0         0
         0         0         0         0         0         0         0         0
         0         0         0         0         0         0         0         0
         0         0         0         0         0         0         0         0
         0         0         0         0         0         0         0         0
         0         0         0         0         0         0         0         0
         0         0         0         0         0         0         0         0
         0         0         0         0         0         0         0         0
         0         0         0         0         0         0         0         0
         0         0         0         0         0         0         0         0
         0         0         0         0         0         0         0         0
         0         0         0         0         0         0         0         0
         0         0         0         0         0         0         0         0
         0         0         0         0         0         0         0         0
         0         0         0         0         0         0         0         0
         0         0         0         0         0         0         0         0
         0         0         0         0         0         0         0         0
         0         0         0         0         0         0         0         0
         0         0         0         0         0         0         0         0
         0         0         0         0         0         0         0         0
         0         0         0         0         0         0         0         0
         0         0         0         0         0         0         0         0
         0         0         0         0         0         0         0         0
         0         0         0         0         0         0         0         0
         0         0         0         0         0         0         0         0
         0         0         0         0         0         0         0         0
         0         0         0         0         0         0         0         0
         0         0         0         0         0         0         0         0
         0         0         0         0         0         0         0         0
         0         0         0         0         0         0         0         0
         0         0         0         0         0         0         0         0
         0         0         0         0         0         0         0         0
         0         0         0         0         0         0         0         0
         0         0         0         0         0         0         0         0
         0         0         0         0         0         0         0         0
         0         0         0         0         0         0         0         0
         0         0         0         0         0         0         0         0
         0         0         0         0         0         0         0         0
         0         0         0         0         0         0         0         0
         0         0         0         0         0         0         0         0
         0         0         0         0         0         0         0         0
         0         0         0         0         0         0         0         0
         0         0         0         0         0         0         0         0
         0         0         0         0         0         0         0         0
         0         0         0         0         0         0         0         0
         0         0         0         0         0         0         0         0
         0         0         0         0         0         0         0         0
         0         0         0         0         0         0         0         0
         0         0         0         0         0         0         0         0
         0         0         0         0         0         0         0         0
         0         0         0         0         0         0         0         0
         0         0         0         0         0         0         0         0
         0         0         0         0         0         0         0         0
         0         0         0         0         0         0         0         0
         0         0         0         0         0         0         0         0
         0         0         0         0         0         0         0         0
         0         0         0         0         0         0         0         0
         0         0         0         0         0         0         0         0
         0         0         0         0         0         0         0         0
         0         0         0         0         0         0         0         0
         0         0         0         0         0         0         0         0
         0         0         0         0         0         0         0         0
         0         0         0         0         0         0         0         0
         0         0         0         0         0         0         0         0
         0         0         0         0         0         0         0         0
         0         0         0         0         0         0         0         0
         0         0         0         0         0         0         0         0
         0         0         0         0         0         0         0         0
         0         0         0         0         0         0         0         0
         0         0         0         0         0         0         0         0
         0         0         0         0         0         0         0         0
         0         0         0         0         0         0         0         0
         0         0         0         0         0         0         0         0
         0         0         0         0         0         0         0         0
         0         0         0         0         0         0         0         0
         0         0         0         0         0         0         0         0
         0         0         0         0         0         0         0         0
         0         0         0         0         0         0         0         0
         0         0         0         0         0         0         0         0
         0         0         0         0         0         0         0         0
         0         0         0         0         0         0         0         0
         0         0         0         0         0         0         0         0
         0         0         0         0         0         0         0         0
         0         0         0         0         0         0         0         0
         0         0         0         0         0         0         0         0
         0         0         0         0         0         0         0         0
         0         0         0         0         0         0         0         0
         0         0         0         0         0         0         0         0
         0         0         0         0         0         0         0         0
         0         0         0         0         0         0         0         0
         0         0         0         0         0         0         0         0
         0         0         0         0         0         0         0         0
         0         0         0         0         0         0         0         0
         0         0         0         0         0         0         0         0
         0         0         0         0         0         0         0         0
         0         0         0         0         0         0         0         0
         0         0         0         0         0         0         0         0
         0         0         0         0         0         0         0         0
         0         0         0         0         0         0         0         0
         0         0         0         0         0         0         0         0
         0         0         0         0         0         0         0         0
         0         0         0         0         0         0         0         0
         0         0         0         0         0         0         0         0
         0         0         0         0         0         0         0         0
         0         0         0         0         0         0         0         0
         0         0         0         0         0         0         0         0
         0         0         0         0         0         0         0         0
         0         0         0         0         0         0         0         0
         0         0         0         0         0         0         0         0
         0         0         0         0         0         0         0         0
         0         0         0         0         0         0         0         0
         0         0         0         0         0         0         0         0
         0         0         0         0         0         0         0         0
         0         0         0         0         0         0         0         0
         0         0         0         0         0         0         0         0
         0         0         0         0         0         0         0         0
         0         0         0         0         0         0         0         0
         0         0         0         0         0         0         0         0
         0         0         0         0         0         0         0         0
         0         0         0         0         0         0         0         0
         0         0         0         0         0         0         0         0
         0         0         0         0         0         0         0         0
         0         0         0         0         0         0         0         0
         0         0         0         0         0         0         0         0
         0         0         0         0         0         0         0         0
         0         0         0         0         0         0         0         0
         0         0         0         0         0         0         0         0
         0         0         0         0         0         0         0         0
         0         0         0         0         0         0         0         0
         0         0         0         0         0         0         0         0
         0         0         0         0         0         0         0         0
         0         0         0         0         0         0         0         0
         0         0         0         0         0         0         0         0
         0         0         0         0         0         0         0         0
         0         0         0         0         0         0         0         0
         0         0         0         0         0         0         0         0
         0         0         0         0         0         0         0         0
         0         0         0         0         0         0         0         0
         0         0         0         0         0         0         0         0
         0         0         0         0         0         0         0         0
         0         0         0         0         0         0         0         0
         0         0         0         0         0         0         0         0
         0         0         0         0         0         0         0         0
         0         0         0         0         0         0         0         0
         0         0         0         0         0         0         0         0
         0         0         0         0         0         0         0         0
         0         0         0         0         0         0         0         0
         0         0         0         0         0         0         0         0
         0         0         0         0         0         0         0         0
         0         0         0         0         0         0         0         0
         0         0         0         0         0         0         0         0
         0         0         0         0         0         0         0         0
         0         0         0         0         0         0         0         0
         0         0         0         0         0         0         0         0
         0         0         0         0         0         0         0         0
         0         0         0         0         0         0         0         0
         0         0         0         0         0         0         0         0
         0         0         0         0         0         0         0         0
         0         0         0         0         0         0         0         0
         0         0         0         0         0         0         0         0
         0         0         0         0         0         0         0         0
         0         0         0         0         0         0         0         0
         0         0         0         0         0         0         0         0
         0         0         0         0         0         0         0         0
         0         0         0         0         0         0         0         0
         0         0         0         0         0         0         0         0
         0         0         0         0         0         0         0         0
         0         0         0         0         0         0         0         0
         0         0         0         0         0         0         0         0
         0         0         0         0         0         0         0         0
         0         0         0         0         0         0         0         0
         0         0         0         0         0         0         0         0
         0         0         0         0         0         0         0         0
         0         0         0         0         0         0         0         0
         0         0         0         0         0         0         0         0
         0         0         0         0         0         0         0         0
         0         0         0         0         0         0         0         0
         0         0         0         0         0         0         0         0
         0         0         0         0         0         0         0         0
         0         0         0         0         0         0         0         0
         0         0         0         0         0         0         0         0
         0         0         0         0         0         0         0         0
         0         0         0         0         0         0         0         0
         0         0         0         0         0         0         0         0
         0         0         0         0         0         0         0         0
         0         0         0         0         0         0         0         0
         0         0         0         0         0         0         0         0
         0         0         0         0         0         0         0         0
         0         0         0         0         0         0         0         0
         0         0         0         0         0         0         0         0
         0         0         0         0         0         0         0         0
         0         0         0         0         0         0         0         0
         0         0         0         0         0         0         0         0
         0         0         0         0         0         0         0         0
         0         0         0         0         0         0         0         0
         0         0         0         0         0         0         0         0
         0         0         0         0         0         0         0         0
         0         0         0         0         0         0         0         0
         0         0         0         0         0         0         0         0
         0         0         0         0         0         0         0         0
         0         0         0         0         0         0         0         0
         0         0         0         0         0         0         0         0
         0         0         0         0         0         0         0         0
         0         0         0         0         0         0         0         0
         0         0         0         0         0         0         0         0
         0         0         0         0         0         0         0         0
         0         0         0         0         0         0         0         0
         0         0         0         0         0         0         0         0
         0         0         0         0         0         0         0         0
         0         0         0         0         0         0         0         0
         0         0         0         0         0         0         0         0
         0         0         0         0         0         0         0         0
         0         0         0         0         0         0         0         0
         0         0         0         0         0         0         0         0
         0         0         0         0         0         0         0         0
         0         0         0         0         0         0         0         0
         0         0         0         0         0         0         0         0
         0         0         0         0         0         0         0         0
         0         0         0         0         0         0         0         0
         0         0         0         0         0         0         0         0
         0         0         0         0         0         0         0         0
         0         0         0         0         0         0         0         0
         0         0         0         0         0         0         0         0
         0         0         0         0         0         0         0         0
         0         0         0         0         0         0         0         0
         0         0         0         0         0         0         0         0
         0         0         0         0         0         0         0         0
         0         0         0         0         0         0         0         0
         0         0         0         0         0         0         0         0
         0         0         0         0         0         0         0         0
         0         0         0         0         0         0         0         0
         0         0         0         0         0         0         0         0
         0         0         0         0         0         0         0         0
         0         0         0         0         0         0         0         0
         0         0         0         0         0         0         0         0
         0         0         0         0         0         0         0         0
         0         0         0         0         0         0         0         0
         0         0         0         0         0         0         0         0
         0         0         0         0         0         0         0         0
         0         0         0         0         0         0         0         0
         0         0         0         0         0         0         0         0
         0         0         0         0         0         0         0         0
         0         0         0         0         0         0         0         0
         0         0         0         0         0         0         0         0
         0         0         0         0         0         0         0         0
         0         0         0         0         0         0         0         0
         0         0         0         0         0         0         0         0
         0         0         0         0         0         0         0         0
         0         0         0         0         0         0         0         0
         0         0         0         0         0         0         0         0
         0         0         0         0         0         0         0         0
         0         0         0         0         0         0         0         0
         0         0         0         0         0         0         0         0
         0         0         0         0         0         0         0         0
         0         0         0         0         0         0         0         0
         0         0         0         0         0         0         0         0
         0         0         0         0         0         0         0         0
         0         0         0         0         0         0         0         0
         0         0         0         0         0         0         0         0
         0         0         0         0         0         0         0         0
         0         0         0         0         0         0         0         0
         0         0         0         0         0         0         0         0
         0         0         0         0         0         0         0         0
         0         0         0         0         0         0         0         0
         0         0         0         0         0         0         0         0
         0         0         0         0         0         0         0         0
         0         0         0         0         0         0         0         0
         0         0         0         0         0         0         0         0
         0         0         0         0         0         0         0         0
         0         0         0         0         0         0         0         0
         0         0         0         0         0         0         0         0
         0         0         0         0         0         0         0         0
         0         0         0         0         0         0         0         0
         0         0         0         0         0         0         0         0
         0         0         0         0         0         0         0         0
         0         0         0         0         0         0         0         0
         0         0         0         0         0         0         0         0
         0         0         0         0         0         0         0         0
         0         0         0         0         0         0         0         0
         0         0         0         0         0         0         0         0
         0         0         0         0         0         0         0         0
         0         0         0         0         0         0         0         0
         0         0         0         0         0         0         0         0
         0         0         0         0         0         0         0         0
         0         0         0         0         0         0         0         0
         0         0         0         0         0         0         0         0
         0         0         0         0         0         0         0         0
         0         0         0         0         0         0         0         0
         0         0         0         0         0         0         0         0
         0         0         0         0         0         0         0         0
         0         0         0         0         0         0         0         0
         0         0         0         0         0         0         0         0
         0         0         0         0         0         0         0         0
         0         0         0         0         0         0         0         0
         0         0         0         0         0         0         0         0
         0         0         0         0         0         0         0         0
         0         0         0         0         0         0         0         0
         0         0         0         0         0         0         0         0
         0         0         0         0         0         0         0         0
         0         0         0         0         0         0         0         0
         0         0         0         0         0         0         0         0
         0         0         0         0         0         0         0         0
         0         0         0         0         0         0         0         0
         0         0         0         0         0         0         0         0
         0         0         0         0         0         0         0         0
         0         0         0         0         0         0         0         0
         0         0         0         0         0         0         0         0
         0         0         0         0         0         0         0         0
         0         0         0         0         0         0         0         0
         0         0         0         0         0         0         0         0
         0         0         0         0         0         0         0         0
         0         0         0         0         0         0         0         0
         0         0         0         0         0         0         0         0
         0         0         0         0         0         0         0         0
         0         0         0         0         0         0         0         0
         0         0         0         0         0         0         0         0
         0         0         0         0         0         0         0         0
         0         0         0         0         0         0         0         0
         0         0         0         0         0         0         0         0
         0         0         0         0         0         0         0         0
         0         0         0         0         0         0         0         0
         0         0         0         0         0         0         0         0
         0         0         0         0         0         0         0         0
         0         0         0         0         0         0         0         0
         0         0         0         0         0         0         0         0
         0         0         0         0         0         0         0         0
         0         0         0         0         0         0         0         0
         0         0         0         0         0         0         0         0
         0         0         0         0         0         0         0         0
         0         0         0         0         0         0         0         0
         0         0         0         0         0         0         0         0
         0         0         0         0         0         0         0         0
         0         0         0         0         0         0         0         0
         0         0         0         0         0         0         0         0
         0         0         0         0         0         0         0         0
         0         0         0         0         0         0         0         0
         0         0         0         0         0         0         0         0
         0         0         0         0         0         0         0         0
         0         0         0         0         0         0         0         0
         0         0         0         0         0         0         0         0
         0         0         0         0         0         0         0         0
         0         0         0         0         0         0         0         0
         0         0         0         0         0         0         0         0
         0         0         0         0         0         0         0         0
         0         0         0         0         0         0         0         0
         0         0         0         0         0         0         0         0
         0         0         0         0         0         0         0         0
         0         0         0         0         0         0         0         0
         0         0         0         0         0         0         0         0
         0         0         0         0         0         0         0         0
         0         0         0         0         0         0         0         0
         0         0         0         0         0         0         0         0
         0         0         0         0         0         0         0         0
         0         0         0         0         0         0         0         0
         0         0         0         0         0         0         0         0
         0         0         0         0         0         0         0         0
         0         0         0         0         0         0         0         0
         0         0         0         0         0         0         0         0
         0         0         0         0         0         0         0         0
         0         0         0         0         0         0         0         0
         0         0         0         0         0         0         0         0
         0         0         0         0         0         0         0         0
         0         0         0         0         0         0         0         0
         0         0         0         0         0         0         0         0
         0         0         0         0         0         0         0         0
         0         0         0         0         0         0         0         0
         0         0         0         0         0         0         0         0
         0         0         0         0         0         0         0         0
         0         0         0         0         0         0         0         0
         0         0         0         0         0         0         0         0
         0         0         0         0         0         0         0         0
         0         0         0         0         0         0         0         0
         0         0         0         0         0         0         0         0
         0         0         0         0         0         0         0         0
         0         0         0         0         0         0         0         0
         0         0         0         0         0         0         0         0
         0         0         0         0         0         0         0         0
         0         0         0         0         0         0         0         0
         0         0         0         0         0         0         0         0
         0         0         0         0         0         0         0         0
         0         0         0         0         0         0         0         0
         0         0         0         0         0         0         0         0
         0         0         0         0         0         0         0         0
         0         0         0         0         0         0         0         0
         0         0         0         0         0         0         0         0
         0         0         0         0         0         0         0         0
         0         0         0         0         0         0         0         0
         0         0         0         0         0         0         0         0
         0         0         0         0         0         0         0         0
         0         0         0         0         0         0         0         0
         0         0         0         0         0         0         0         0
         0         0         0         0         0         0         0         0
         0         0         0         0         0         0         0         0
         0         0         0         0         0         0         0         0
         0         0         0         0         0         0         0         0
         0         0         0         0         0         0         0         0
         0         0         0         0         0         0         0         0
         0         0         0         0         0         0         0         0
         0         0         0         0         0         0         0         0
         0         0         0         0         0         0         0         0
         0         0         0         0         0         0         0         0
         0         0         0         0         0         0         0         0
         0         0         0         0         0         0         0         0
         0         0         0         0         0         0         0         0
         0         0         0         0         0         0         0         0
         0         0         0         0         0         0         0         0
         0         0         0         0         0         0         0         0
         0         0         0         0         0         0         0         0
         0         0         0         0         0         0         0         0
         0         0         0         0         0         0         0         0
         0         0         0         0         0         0         0         0
         0         0         0         0         0         0         0         0
         0         0         0         0         0         0         0         0
         0         0         0         0         0         0         0         0
         0         0         0         0         0         0         0         0
         0         0         0         0         0         0         0         0
         0         0         0         0         0         0         0         0
         0         0         0         0         0         0         0         0
         0         0         0         0         0         0         0         0
         0         0         0         0         0         0         0         0
         0         0         0         0         0         0         0         0
         0         0         0         0         0         0         0         0
         0         0         0         0         0         0         0         0
         0         0         0         0         0         0         0         0
         0         0         0         0         0         0         0         0
         0         0         0         0         0         0         0         0
         0         0         0         0         0         0         0         0
         0         0         0         0         0         0         0         0
         0         0         0         0         0         0         0         0
         0         0         0         0         0         0         0         0
         0         0         0         0         0         0         0         0
         0         0         0         0         0         0         0         0
         0         0         0         0         0         0         0         0
         0         0         0         0         0         0         0         0
         0         0         0         0         0         0         0         0
         0         0         0         0         0         0         0         0
         0         0         0         0         0         0         0         0
         0         0         0         0         0         0         0         0
         0         0         0         0         0         0         0         0
         0         0         0         0         0         0         0         0
         0         0         0         0         0         0         0         0
         0         0         0         0         0         0         0         0
         0         0         0         0         0         0         0         0
         0         0         0         0         0         0         0         0
         0         0         0         0         0         0         0         0
         0         0         0         0         0         0         0         0
         0         0         0         0         0         0         0         0
         0         0         0         0         0         0         0         0
         0         0         0         0         0         0         0         0
         0         0         0         0         0         0         0         0
         0         0         0         0         0         0         0         0
         0         0         0         0         0         0         0         0
         0         0         0         0         0         0         0         0
         0         0         0         0         0         0         0         0
         0         0         0         0         0         0         0         0
         0         0         0         0         0         0         0         0
         0         0         0         0         0         0         0         0
         0         0         0         0         0         0         0         0
         0         0         0         0         0         0         0         0
         0         0         0         0         0         0         0         0
         0         0         0         0         0         0         0         0
         0         0         0         0         0         0         0         0
         0         0         0         0         0         0         0         0
         0         0         0         0         0         0         0         0
         0         0         0         0         0         0         0         0
         0         0         0         0         0         0         0         0
         0         0         0         0         0         0         0         0
         0         0         0         0         0         0         0         0
         0         0         0         0         0         0         0         0
         0         0         0         0         0         0         0         0
         0         0         0         0         0         0         0         0
         0         0         0         0         0         0         0         0
         0         0         0         0         0         0         0         0
         0         0         0         0         0         0         0         0
         0         0         0         0         0         0         0         0
         0         0         0         0         0         0         0         0
         0         0         0         0         0         0         0         0
         0         0         0         0         0         0         0         0
         0         0         0         0         0         0         0         0
         0         0         0         0         0         0         0         0
         0         0         0         0         0         0         0         0
         0         0         0         0         0         0         0         0
         0         0         0         0         0         0         0         0
         0         0         0         0         0         0         0         0
         0         0         0         0         0         0         0         0
         0         0         0         0         0         0         0         0
         0         0         0         0         0         0         0         0
         0         0         0         0         0         0         0         0
         0         0         0         0         0         0         0         0
         0         0         0         0         0         0         0         0
         0         0         0         0         0         0         0         0
         0         0         0         0         0         0         0         0
         0         0         0         0         0         0         0         0
         0         0         0         0         0         0         0         0
         0         0         0         0         0         0         0         0
         0         0         0         0         0         0         0         0
         0         0         0         0         0         0         0         0
         0         0         0         0         0         0         0         0
         0         0         0         0         0         0         0         0
         0         0         0         0         0         0         0         0
         0         0         0         0         0         0         0         0
         0         0         0         0         0         0         0         0
         0         0         0         0         0         0         0         0
         0         0         0         0         0         0         0         0
         0         0         0         0         0         0         0         0
         0         0         0         0         0         0         0         0
         0         0         0         0         0         0         0         0
         0         0         0         0         0         0         0         0
         0         0         0         0         0         0         0         0
         0         0         0         0         0         0         0         0
         0         0         0         0         0         0         0         0
         0         0         0         0         0         0         0         0
         0         0         0         0         0         0         0         0
         0         0         0         0         0         0         0         0
         0         0         0         0         0         0         0         0
         0         0         0         0         0         0         0         0
         0         0         0         0         0         0         0         0
         0         0         0         0         0         0         0         0
         0         0         0         0         0         0         0         0
         0         0         0         0         0         0         0         0
         0         0         0         0         0         0         0         0
         0         0         0         0         0         0         0         0
         0         0         0         0         0         0         0         0
         0         0         0         0         0         0         0         0
         0         0         0         0         0         0         0         0
         0         0         0         0         0         0         0         0
         0         0         0         0         0         0         0         0
         0         0         0         0         0         0         0         0
         0         0         0         0         0         0         0         0
         0         0         0         0         0         0         0         0
         0         0         0         0         0         0         0         0
         0         0         0         0         0         0         0         0
         0         0         0         0         0         0         0         0
         0         0         0         0         0         0         0         0
         0         0         0         0         0         0         0         0
         0         0         0         0         0         0         0         0
         0         0         0         0         0         0         0         0
         0         0         0         0         0         0         0         0
         0         0         0         0         0         0         0         0
         0         0         0         0         0         0         0         0
         0         0         0         0         0         0         0         0
         0         0         0         0         0         0         0         0
         0         0         0         0         0         0         0         0
         0         0         0         0         0         0         0         0
         0         0         0         0         0         0         0         0
         0         0         0         0         0         0         0         0
         0         0         0         0         0         0         0         0
         0         0         0         0         0         0         0         0
         0         0         0         0         0         0         0         0
         0         0         0         0         0         0         0         0
         0         0         0         0         0         0         0         0
         0         0         0         0         0         0         0         0
         0         0         0         0         0         0         0         0
         0         0         0         0         0         0         0         0
         0         0         0         0         0         0         0         0
         0         0         0         0         0         0         0         0
         0         0         0         0         0         0         0         0
         0         0         0         0         0         0         0         0
         0         0         0         0         0         0         0         0
         0         0         0         0         0         0         0         0
         0         0         0         0         0         0         0         0
         0         0         0         0         0         0         0         0
         0         0         0         0         0         0         0         0
         0         0         0         0         0         0         0         0
         0         0         0         0         0         0         0         0
         0         0         0         0         0         0         0         0
         0         0         0         0         0         0         0         0
         0         0         0         0         0         0         0         0
         0         0         0         0         0         0         0         0
         0         0         0         0         0         0         0         0
         0         0         0         0         0         0         0         0
         0         0         0         0         0         0         0         0
         0         0         0         0         0         0         0         0
         0         0         0         0         0         0         0         0
         0         0         0         0         0         0         0         0
         0         0         0         0         0         0         0         0
         0         0         0         0         0         0         0         0
         0         0         0         0         0         0         0         0
         0         0         0         0         0         0         0         0
         0         0         0         0         0         0         0         0
         0         0         0         0         0         0         0         0
         0         0         0         0         0         0         0         0
         0         0         0         0         0         0         0         0
         0         0         0         0         0         0         0         0
         0         0         0         0         0         0         0         0
         0         0         0         0         0         0         0         0
         0         0         0         0         0         0         0         0
         0         0         0         0         0         0         0         0
         0         0         0         0         0         0         0         0
         0         0         0         0         0         0         0         0
         0         0         0         0         0         0         0         0
         0         0         0         0         0         0         0         0
         0         0         0         0         0         0         0         0
         0         0         0         0         0         0         0         0
         0         0         0         0         0         0         0         0
         0         0         0         0         0         0         0         0
         0         0         0         0         0         0         0         0
         0         0         0         0         0         0         0         0
         0         0         0         0         0         0         0         0
         0         0         0         0         0         0         0         0
         0         0         0         0         0         0         0         0
         0         0         0         0         0         0         0         0
         0         0         0         0         0         0         0         0
         0         0         0         0         0         0         0         0
         0         0         0         0         0         0         0         0
         0         0         0         0         0         0         0         0
         0         0         0         0         0         0         0         0
         0         0         0         0         0         0         0         0
         0         0         0         0         0         0         0         0
         0         0         0         0         0         0         0         0
         0         0         0         0         0         0         0         0
         0         0         0         0         0         0         0         0
         0         0         0         0         0         0         0         0
         0         0         0         0         0         0         0         0
         0         0         0         0         0         0         0         0
         0         0         0         0         0         0         0         0
         0         0         0         0         0         0         0         0
         0         0         0         0         0         0         0         0
         0         0         0         0         0         0         0         0
         0         0         0         0         0         0         0         0
         0         0         0         0         0         0         0         0
         0         0         0         0         0         0         0         0
         0         0         0         0         0         0         0         0
         0         0         0         0         0         0         0         0
         0         0         0         0         0         0         0         0
         0         0         0         0         0         0         0         0
         0         0         0         0         0         0         0         0
         0         0         0         0         0         0         0         0
         0         0         0         0         0         0         0         0
         0         0         0         0         0         0         0         0
         0         0         0         0         0         0         0         0
         0         0         0         0         0         0         0         0
         0         0         0         0         0         0         0         0
         0         0         0         0         0         0         0         0
         0         0         0         0         0         0         0         0
         0         0         0         0         0         0         0         0
         0         0         0         0         0         0         0         0
         0         0         0         0         0         0         0         0
         0         0         0         0         0         0         0         0
         0         0         0         0         0         0         0         0
         0         0         0         0         0         0         0         0
         0         0         0         0         0         0         0         0
         0         0         0         0         0         0         0         0
         0         0         0         0         0         0         0         0
         0         0         0         0         0         0         0         0
         0         0         0         0         0         0         0         0
         0         0         0         0         0         0         0         0
         0         0         0         0         0         0         0         0
         0         0         0         0         0         0         0         0
         0         0         0         0         0         0         0         0
         0         0         0         0         0         0         0         0
         0         0         0         0         0         0         0         0
         0         0         0         0         0         0         0         0
         0         0         0         0         0         0         0         0
         0         0         0         0         0         0         0         0
         0         0         0         0         0         0         0         0
         0         0         0         0         0         0         0         0
         0         0         0         0         0         0         0         0
         0         0         0         0         0         0         0         0
         0         0         0         0         0         0         0         0
         0         0         0         0         0         0         0         0
         0         0         0         0         0         0         0         0
         0         0         0         0         0         0         0         0
         0         0         0         0         0         0         0         0
         0         0         0         0         0         0         0         0
         0         0         0         0         0         0         0         0
         0         0         0         0         0         0         0         0
         0         0         0         0         0         0         0         0
         0         0         0         0         0         0         0         0
         0         0         0         0         0         0         0         0
         0         0         0         0         0         0         0         0
         0         0         0         0         0         0         0         0
         0         0         0         0         0         0         0         0
         0         0         0         0         0         0         0         0
         0         0         0         0         0         0         0         0
         0         0         0         0         0         0         0         0
         0         0         0         0         0         0         0         0
         0         0         0         0         0         0         0         0
         0         0         0         0         0         0         0         0
         0         0         0         0         0         0         0         0
         0         0         0         0         0         0         0         0
         0         0         0         0         0         0         0         0
         0         0         0         0         0         0         0         0
         0         0         0         0         0         0         0         0
         0         0         0         0         0         0         0         0
         0         0         0         0         0         0         0         0
         0         0         0         0         0         0         0         0
         0         0         0         0         0         0         0         0
         0         0         0         0         0         0         0         0
         0         0         0         0         0         0         0         0
         0         0         0         0         0         0         0         0
         0         0         0         0         0         0         0         0
         0         0         0         0         0         0         0         0
         0         0         0         0         0         0         0         0
         0         0         0         0         0         0         0         0
         0         0         0         0         0         0         0         0
         0         0         0         0         0         0         0         0
         0         0         0         0         0         0         0         0
         0         0         0         0         0         0         0         0
         0         0         0         0         0         0         0         0
         0         0         0         0         0         0         0         0
         0         0         0         0         0         0         0         0
         0         0         0         0         0         0         0         0
         0         0         0         0         0         0         0         0
         0         0         0         0         0         0         0         0
         0         0         0         0         0         0         0         0
         0         0         0         0         0         0         0         0
         0         0         0         0         0         0         0         0
         0         0         0         0         0         0         0         0
         0         0         0         0         0         0         0         0
         0         0         0         0         0         0         0         0
         0         0         0         0         0         0         0         0
         0         0         0         0         0         0         0         0
         0         0         0         0         0         0         0         0
         0         0         0         0         0         0         0         0
         0         0         0         0         0         0         0         0
         0         0         0         0         0         0         0         0
         0         0         0         0         0         0         0         0
         0         0         0         0         0         0         0         0
         0         0         0         0         0         0         0         0
         0         0         0         0         0         0         0         0
         0         0         0         0         0         0         0         0
         0         0         0         0         0         0         0         0
         0         0         0         0         0         0         0         0
         0         0         0         0         0         0         0         0
         0         0         0         0         0         0         0         0
         0         0         0         0         0         0         0         0
         0         0         0         0         0         0         0         0
         0         0         0         0         0         0         0         0
         0         0         0         0         0         0         0         0
         0         0         0         0         0         0         0         0
         0         0         0         0         0         0         0         0
         0         0         0         0         0         0         0         0
         0         0         0         0         0         0         0         0
         0         0         0         0         0         0         0         0
         0         0         0         0         0         0         0         0
         0         0         0         0         0         0         0         0
         0         0         0         0         0         0         0         0
         0         0         0         0         0         0         0         0
         0         0         0         0         0         0         0         0
         0         0         0         0         0         0         0         0
         0         0         0         0         0         0         0         0
         0         0         0         0         0         0         0         0
         0         0         0         0         0         0         0         0
         0         0         0         0         0         0         0         0
         0         0         0         0         0         0         0         0
         0         0         0         0         0         0         0         0
         0         0         0         0         0         0         0         0
         0         0         0         0         0         0         0         0
         0         0         0         0         0         0         0         0
         0         0         0         0         0         0         0         0
         0         0         0         0         0         0         0         0
         0         0         0         0         0         0         0         0
         0         0         0         0         0         0         0         0
         0         0         0         0         0         0         0         0
         0         0         0         0         0         0         0         0
         0         0         0         0         0         0         0         0
         0         0         0         0         0         0         0         0
         0         0         0         0         0         0         0         0
         0         0         0         0         0         0         0         0
         0         0         0         0         0         0         0         0
         0         0         0         0         0         0         0         0
         0         0         0         0         0         0         0         0
         0         0         0         0         0         0         0         0
         0         0         0         0         0         0         0         0
         0         0         0         0         0         0         0         0
         0         0         0         0         0         0         0         0
         0         0         0         0         0         0         0         0
         0         0         0         0         0         0         0         0
         0         0         0         0         0         0         0         0
         0         0         0         0         0         0         0         0
         0         0         0         0         0         0         0         0
         0         0         0         0         0         0         0         0
         0         0         0         0         0         0         0         0
         0         0         0         0         0         0         0         0
         0         0         0         0         0         0         0         0
         0         0         0         0         0         0         0         0
         0         0         0         0         0         0         0         0
         0         0         0         0         0         0         0         0
         0         0         0         0         0         0         0         0
         0         0         0         0         0         0         0         0
         0         0         0         0         0         0         0         0
         0         0         0         0         0         0         0         0
         0         0         0         0         0         0         0         0
         0         0         0         0         0         0         0         0
         0         0         0         0         0         0         0         0
         0         0         0         0         0         0         0         0
         0         0         0         0         0         0         0         0
         0         0         0         0         0         0         0         0
         0         0         0         0         0         0         0         0
         0         0         0         0         0         0         0         0
         0         0         0         0         0         0         0         0
         0         0         0         0         0         0         0         0
         0         0         0         0         0         0         0         0
         0         0         0         0         0         0         0         0
         0         0         0         0         0         0         0         0
         0         0         0         0         0         0         0         0
         0         0         0         0         0         0         0         0
         0         0         0         0         0         0         0         0
         0         0         0         0         0         0         0         0
         0         0         0         0         0         0         0         0
         0         0         0         0         0         0         0         0
         0         0         0         0         0         0         0         0
         0         0         0         0         0         0         0         0
         0         0         0         0         0         0         0         0
         0         0         0         0         0         0         0         0
         0         0         0         0         0         0         0         0
         0         0         0         0         0         0         0         0
         0         0         0         0         0         0         0         0
         0         0         0         0         0         0         0         0
         0         0         0         0         0         0         0         0
         0         0         0         0         0         0         0         0
         0         0         0         0         0         0         0         0
         0         0         0         0         0         0         0         0
         0         0         0         0         0         0         0         0
         0         0         0         0         0         0         0         0
         0         0         0         0         0         0         0         0
         0         0         0         0         0         0         0         0
         0         0         0         0         0         0         0         0
         0         0         0         0         0         0         0         0
         0         0         0         0         0         0         0         0
         0         0         0         0         0         0         0         0
         0         0         0         0         0         0         0         0
         0         0         0         0         0         0         0         0
         0         0         0         0         0         0         0         0
         0         0         0         0         0         0         0         0
         0         0         0         0         0         0         0         0
         0         0         0         0         0         0         0         0
         0         0         0         0         0         0         0         0
         0         0         0         0         0         0         0         0
         0         0         0         0         0         0         0         0
         0         0         0         0         0         0         0         0
         0         0         0         0         0         0         0         0
         0         0         0         0         0         0         0         0
         0         0         0         0         0         0         0         0
         0         0         0         0         0         0         0         0
         0         0         0         0         0         0         0         0
         0         0         0         0         0         0         0         0
         0         0         0         0         0         0         0         0
         0         0         0         0         0         0         0         0
         0         0         0         0         0         0         0         0
         0         0         0         0         0         0         0         0
         0         0         0         0         0         0         0         0
         0         0         0         0         0         0         0         0
         0         0         0         0         0         0         0         0
         0         0         0         0         0         0         0         0
         0         0         0         0         0         0         0         0
         0         0         0         0         0         0         0         0
         0         0         0         0         0         0         0         0
         0         0         0         0         0         0         0         0
         0         0         0         0         0         0         0         0
         0         0         0         0         0         0         0         0
         0         0         0         0         0         0         0         0
         0         0         0         0         0         0         0         0
         0         0         0         0         0         0         0         0
         0         0         0         0         0         0         0         0
         0         0         0         0         0         0         0         0
         0         0         0         0         0         0         0         0
         0         0         0         0         0         0         0         0
         0         0         0         0         0         0         0         0
         0         0         0         0         0         0         0         0
         0         0         0         0         0         0         0         0
         0         0         0         0         0         0         0         0
         0         0         0         0         0         0         0         0
         0         0         0         0         0         0         0         0
         0         0         0         0         0         0         0         0
         0         0         0         0         0         0         0         0
         0         0         0         0         0         0         0         0
         0         0         0         0         0         0         0         0
         0         0         0         0         0         0         0         0
         0         0         0         0         0         0         0         0
         0         0         0         0         0         0         0         0
         0         0         0         0         0         0         0         0
         0         0         0         0         0         0         0         0
         0         0         0         0         0         0         0         0
         0         0         0         0         0         0         0         0
         0         0         0         0         0         0         0         0
         0         0         0         0         0         0         0         0
         0         0         0         0         0         0         0         0
         0         0         0         0         0         0         0         0
         0         0         0         0         0         0         0         0
         0         0         0         0         0         0         0         0
         0         0         0         0         0         0         0         0
         0         0         0         0         0         0         0         0
         0         0         0         0         0         0         0         0
         0         0         0         0         0         0         0         0
         0         0         0         0         0         0         0         0
         0         0         0         0         0         0         0         0
         0         0         0         0         0         0         0         0
         0         0         0         0         0         0         0         0
         0         0         0         0         0         0         0         0
         0         0         0         0         0         0         0         0
         0         0         0         0         0         0         0         0
         0         0         0         0         0         0         0         0
         0         0         0         0         0         0         0         0
         0         0         0         0         0         0         0         0
         0         0         0         0         0         0         0         0
         0         0         0         0         0         0         0         0
         0         0         0         0         0         0         0         0
         0         0         0         0         0         0         0         0
         0         0         0         0         0         0         0         0
         0         0         0         0         0         0         0         0
         0         0         0         0         0         0         0         0
         0         0         0         0         0         0         0         0
         0         0         0         0         0         0         0         0
         0         0         0         0         0         0         0         0
         0         0         0         0         0         0         0         0
         0         0         0         0         0         0         0         0
         0         0         0         0         0         0         0         0
         0         0         0         0         0         0         0         0
         0         0         0         0         0         0         0         0
         0         0         0         0         0         0         0         0
         0         0         0         0         0         0         0         0
         0         0         0         0         0         0         0         0
         0         0         0         0         0         0         0         0
         0         0         0         0         0         0         0         0
         0         0         0         0         0         0         0         0
         0         0         0         0         0         0         0         0
         0         0         0         0         0         0         0         0
         0         0         0         0         0         0         0         0
         0         0         0         0         0         0         0         0
         0         0         0         0         0         0         0         0
         0         0         0         0         0         0         0         0
         0         0         0         0         0         0         0         0
         0         0         0         0         0         0         0         0
         0         0         0         0         0         0         0         0
         0         0         0         0         0         0         0         0
         0         0         0         0         0         0         0         0
         0         0         0         0         0         0         0         0
         0         0         0         0         0         0         0         0
         0         0         0         0         0         0         0         0
         0         0         0         0         0         0         0         0
         0         0         0         0         0         0         0         0
         0         0         0         0         0         0         0         0
         0         0         0         0         0         0         0         0
         0         0         0         0         0         0         0         0
         0         0         0         0         0         0         0         0
         0         0         0         0         0         0         0         0
         0         0         0         0         0         0         0         0
         0         0         0         0         0         0         0         0
         0         0         0         0         0         0         0         0
         0         0         0         0         0         0         0         0
         0         0         0         0         0         0         0         0
         0         0         0         0         0         0         0         0
         0         0         0         0         0         0         0         0
         0         0         0         0         0         0         0         0
         0         0         0         0         0         0         0         0
         0         0         0         0         0         0         0         0
         0         0         0         0         0         0         0         0
         0         0         0         0         0         0         0         0
         0         0         0         0         0         0         0         0
         0         0         0         0         0         0         0         0
         0         0         0         0         0         0         0         0
         0         0         0         0         0         0         0         0
         0         0         0         0         0         0         0         0
         0         0         0         0         0         0         0         0
         0         0         0         0         0         0         0         0
         0         0         0         0         0         0         0         0
         0         0         0         0         0         0         0         0
         0         0         0         0         0         0         0         0
         0         0         0         0         0         0         0         0
         0         0         0         0         0         0         0         0
         0         0         0         0         0         0         0         0
         0         0         0         0         0         0         0         0
         0         0         0         0         0         0         0         0
         0         0         0         0         0         0         0         0
         0         0         0         0         0         0         0         0
         0         0         0         0         0         0         0         0
         0         0         0         0         0         0         0         0
         0         0         0         0         0         0         0         0
         0         0         0         0         0         0         0         0
         0         0         0         0         0         0         0         0
         0         0         0         0         0         0         0         0
         0         0         0         0         0         0         0         0
         0         0         0         0         0         0         0         0
         0         0         0         0         0         0         0         0
         0         0         0         0         0         0         0         0
         0         0         0         0         0         0         0         0
         0         0         0         0         0         0         0         0
         0         0         0         0         0         0         0         0
         0         0         0         0         0         0         0         0
         0         0         0         0         0         0         0         0
         0         0         0         0         0         0         0         0
         0         0         0         0         0         0         0         0
         0         0         0         0         0         0         0         0
         0         0         0         0         0         0         0         0
         0         0         0         0         0         0         0         0
         0         0         0         0         0         0         0         0
         0         0         0         0         0         0         0         0
         0         0         0         0         0         0         0         0
         0         0         0         0         0         0         0         0
         0         0         0         0         0         0         0         0
         0         0         0         0         0         0         0         0
         0         0         0         0         0         0         0         0
         0         0         0         0         0         0         0         0
         0         0         0         0         0         0         0         0
         0         0         0         0         0         0         0         0
         0         0         0         0         0         0         0         0
         0         0         0         0         0         0         0         0
         0         0         0         0         0         0         0         0
         0         0         0         0         0         0         0         0
         0         0         0         0         0         0         0         0
         0         0         0         0         0         0         0         0
         0         0         0         0         0         0         0         0
         0         0         0         0         0         0         0         0
         0         0         0         0         0         0         0         0
         0         0         0         0         0         0         0         0
         0         0         0         0         0         0         0         0
         0         0         0         0         0         0         0         0
         0         0         0         0         0         0         0         0
         0         0         0         0         0         0         0         0
         0         0         0         0         0         0         0         0
         0         0         0         0         0         0         0         0
         0         0         0         0         0         0         0         0
         0         0         0         0         0         0         0         0
         0         0         0         0         0         0         0         0
         0         0         0         0         0         0         0         0
         0         0         0         0         0         0         0         0
         0         0         0         0         0         0         0         0
         0         0         0         0         0         0         0         0
         0         0         0         0         0         0         0         0
         0         0         0         0         0         0         0         0
         0         0         0         0         0         0         0         0
         0         0         0         0         0         0         0         0
         0         0         0         0         0         0         0         0
         0         0         0         0         0         0         0         0
         0         0         0         0         0         0         0         0
         0         0         0         0         0         0         0         0
         0         0         0         0         0         0         0         0
         0         0         0         0         0         0         0         0
         0         0         0         0         0         0         0         0
         0         0         0         0         0         0         0         0
         0         0         0         0         0         0         0         0
         0         0         0         0         0         0         0         0
         0         0         0         0         0         0         0         0
         0         0         0         0         0         0         0         0
         0         0         0         0         0         0         0         0
         0         0         0         0         0         0         0         0
         0         0         0         0         0         0         0         0
         0         0         0         0         0         0         0         0
         0         0         0         0         0         0         0         0
         0         0         0         0         0         0         0         0
         0         0         0         0         0         0         0         0
         0         0         0         0         0         0         0         0
         0         0         0         0         0         0         0         0
         0         0         0         0         0         0         0         0
         0         0         0         0         0         0         0         0
         0         0         0         0         0         0         0         0
         0         0         0         0         0         0         0         0
         0         0         0         0         0         0         0         0
         0         0         0         0         0         0         0         0
         0         0         0         0         0         0         0         0
         0         0         0         0         0         0         0         0
         0         0         0         0         0         0         0         0
         0         0         0         0         0         0         0         0
         0         0         0         0         0         0         0         0
         0         0         0         0         0         0         0         0
         0         0         0         0         0         0         0         0
         0         0         0         0         0         0         0         0
         0         0         0         0         0         0         0         0
         0         0         0         0         0         0         0         0
         0         0         0         0         0         0         0         0
         0         0         0         0         0         0         0         0
         0         0         0         0         0         0         0         0
         0         0         0         0         0         0         0         0
         0         0         0         0         0         0         0         0
         0         0         0         0         0         0         0         0
         0         0         0         0         0         0         0         0
         0         0         0         0         0         0         0         0
         0         0         0         0         0         0         0         0
         0         0         0         0         0         0         0         0
         0         0         0         0         0         0         0         0
         0         0         0         0         0         0         0         0
         0         0         0         0         0         0         0         0
         0         0         0         0         0         0         0         0
         0         0         0         0         0         0         0         0
         0         0         0         0         0         0         0         0
         0         0         0         0         0         0         0         0
         0         0         0         0         0         0         0         0
         0         0         0         0         0         0         0         0
         0         0         0         0         0         0         0         0
         0         0         0         0         0         0         0         0
         0         0         0         0         0         0         0         0
         0         0         0         0         0         0         0         0
         0         0         0         0         0         0         0         0
         0         0         0         0         0         0         0         0
         0         0         0         0         0         0         0         0
         0         0         0         0         0         0         0         0
         0         0         0         0         0         0         0         0
         0         0         0         0         0         0         0         0
         0         0         0         0         0         0         0         0
         0         0         0         0         0         0         0         0
         0         0         0         0         0         0         0         0
         0         0         0         0         0         0         0         0
         0         0         0         0         0         0         0         0
         0         0         0         0         0         0         0         0
         0         0         0         0         0         0         0         0
         0         0         0         0         0         0         0         0
         0         0         0         0         0         0         0         0
         0         0         0         0         0         0         0         0
         0         0         0         0         0         0         0         0
         0         0         0         0         0         0         0         0
         0         0         0         0         0         0         0         0
         0         0         0         0         0         0         0         0
         0         0         0         0         0         0         0         0
         0         0         0         0         0         0         0         0
         0         0         0         0         0         0         0         0
         0         0         0         0         0         0         0         0
         0         0         0         0         0         0         0         0
         0         0         0         0         0         0         0         0
         0         0         0         0         0         0         0         0
         0         0         0         0         0         0         0         0
         0         0         0         0         0         0         0         0
         0         0         0         0         0         0         0         0
         0         0         0         0         0         0         0         0
         0         0         0         0         0         0         0         0
         0         0         0         0         0         0         0         0
         0         0         0         0         0         0         0         0
         0         0         0         0         0         0         0         0
         0         0         0         0         0         0         0         0
         0         0         0         0         0         0         0         0
         0         0         0         0         0         0         0         0
         0         0         0         0         0         0         0         0
         0         0         0         0         0         0         0         0
         0         0         0         0         0         0         0         0
         0         0         0         0         0         0         0         0
         0         0         0         0         0         0         0         0
         0         0         0         0         0         0         0         0
         0         0         0         0         0         0         0         0
         0         0         0         0         0         0         0         0
         0         0         0         0         0         0         0         0
         0         0         0         0         0         0         0         0
         0         0         0         0         0         0         0         0
         0         0         0         0         0         0         0         0
         0         0         0         0         0         0         0         0
         0         0         0         0         0         0         0         0
         0         0         0         0         0         0         0         0
         0         0         0         0         0         0         0         0
         0         0         0         0         0         0         0         0
         0         0         0         0         0         0         0         0
         0         0         0         0         0         0         0         0
         0         0         0         0         0         0         0         0
         0         0         0         0         0         0         0         0
         0         0         0         0         0         0         0         0
         0         0         0         0         0         0         0         0
         0         0         0         0         0         0         0         0
         0         0         0         0         0         0         0         0
         0         0         0         0         0         0         0         0
         0         0         0         0         0         0         0         0
         0         0         0         0         0         0         0         0
         0         0         0         0         0         0         0         0
         0         0         0         0         0         0         0         0
         0         0         0         0         0         0         0         0
         0         0         0         0         0         0         0         0
         0         0         0         0         0         0         0         0
         0         0         0         0         0         0         0         0
         0         0         0         0         0         0         0         0
         0         0         0         0         0         0         0         0
         0         0         0         0         0         0         0         0
         0         0         0         0         0         0         0         0
         0         0         0         0         0         0         0         0
         0         0         0         0         0         0         0         0
         0         0         0         0         0         0         0         0
         0         0         0         0         0         0         0         0
         0         0         0         0         0         0

      4446         0 !NGRP NST2
         0         2         0        16         2         0        27         1         0
        35         1         0        44         1         0        47         1         0
        50         1         0        53         1         0        56         1         0
        59         1         0        62         1         0        64         1         0
        66         1         0        69         1         0        72         1         0
        75         1         0        78         1         0        81         1         0
        84         1         0        87         1         0        91         1         0
        94         1         0        97         1         0       100         1         0
       103         1         0       106         1         0       109         1         0
       112         1         0       115         1         0       118         1         0
       121         1         0       124         1         0       127         1         0
       130         1         0       134         2         0       140         2         0
       143         2         0       154         1         0       162         1         0
       171         1         0       174         1         0       177         1         0
       180         1         0       183         1         0       186         1         0
       189         1         0       191         1         0       193         1         0
       196         1         0       199         1         0       202         1         0
       205         1         0       208         1         0       211         1         0
       214         1         0       218         1         0       221         1         0
       224         1         0       227         1         0       230         1         0
       233         1         0       236         1         0       239         1         0
       242         1         0       245         1         0       248         1         0
       251         1         0       254         1         0       257         1         0
       261         2         0       267         2         0       270         2         0
       281         1         0       289         1         0       298         1         0
       301         1         0       304         1         0       307         1         0
       310         1         0       313         1         0       316         1         0
       318         1         0       320         1         0       323         1         0
       326         1         0       329         1         0       332         1         0
       335         1         0       338         1         0       341         1         0
       345         1         0       348         1         0       351         1         0
       354         1         0       357         1         0       360         1         0
       363         1         0       366         1         0       369         1         0
       372         1         0       375         1         0       378         1         0
       381         1         0       384         1         0       388         2         0
       404         2         0       415         1         0       423         1         0
       432         1         0       435         1         0       438         1         0
       441         1         0       444         1         0       447         1         0
       450         1         0       452         1         0       454         1         0
       457         1         0       460         1         0       463         1         0
       466         1         0       469         1         0       472         1         0
       475         1         0       479         1         0       482         1         0
       485         1         0       488         1         0       491         1         0
       494         1         0       497         1         0       500         1         0
       503         1         0       506         1         0       509         1         0
       512         1         0       515         1         0       518         1         0
       522         2         0       538         2         0       549         1         0
       557         1         0       566         1         0       569         1         0
       572         1         0       575         1         0       578         1         0
       581         1         0       584         1         0       586         1         0
       588         1         0       591         1         0       594         1         0
       597         1         0       600         1         0       603         1         0
       606         1         0       609         1         0       613         1         0
       616         1         0       619         1         0       622         1         0
       625         1         0       628         1         0       631         1         0
       634         1         0       637         1         0       640         1         0
       643         1         0       646         1         0       649         1         0
       652         1         0       656         2         0       672         2         0
       683         1         0       691         1         0       700         1         0
       703         1         0       706         1         0       709         1         0
       712         1         0       715         1         0       718         1         0
       720         1         0       722         1         0       725         1         0
       728         1         0       731         1         0       734         1         0
       737         1         0       740         1         0       743         1         0
       747         1         0       750         1         0       753         1         0
       756         1         0       759         1         0       762         1         0
       765         1         0       768         1         0       771         1         0
       774         1         0       777         1         0       780         1         0
       783         1         0       786         1         0       790         2         0
       796         2         0       799         2         0       810         1         0
       818         1         0       827         1         0       830         1         0
       833         1         0       836         1         0       839         1         0
       842         1         0       845         1         0       847         1         0
       849         1         0       852         1         0       855         1         0
       858         1         0       861         1         0       864         1         0
       867         1         0       870         1         0       874         1         0
       877         1         0       880         1         0       883         1         0
       886         1         0       889         1         0       892         1         0
       895         1         0       898         1         0       901         1         0
       904         1         0       907         1         0       910         1         0
       913         1         0       917         2         0       933         2         0
       944         1         0       952         1         0       961         1         0
       964         1         0       967         1         0       970         1         0
       973         1         0       976         1         0       979         1         0
       981         1         0       983         1         0       986         1         0
       989         1         0       992         1         0       995         1         0
       998         1         0      1001         1         0      1004         1         0
      1008         1         0      1011         1         0      1014         1         0
      1017         1         0      1020         1         0      1023         1         0
      1026         1         0      1029         1         0      1032         1         0
      1035         1         0      1038         1         0      1041         1         0
      1044         1         0      1047         1         0      1051         2         0
      1067         2         0      1078         1         0      1086         1         0
      1095         1         0      1098         1         0      1101         1         0
      1104         1         0      1107         1         0      1110         1         0
      1113         1         0      1115         1         0      1117         1         0
      1120         1         0      1123         1         0      1126         1         0
      1129         1         0      1132         1         0      1135         1         0
      1138         1         0      1142         1         0      1145         1         0
      1148         1         0      1151         1         0      1154         1         0
      1157         1         0      1160         1         0      1163         1         0
      1166         1         0      1169         1         0      1172         1         0
      1175         1         0      1178         1         0      1181         1         0
      1185         2         0      1201         2         0      1212         1         0
      1220         1         0      1229         1         0      1232         1         0
      1235         1         0      1238         1         0      1241         1         0
      1244         1         0      1247         1         0      1249         1         0
      1251         1         0      1254         1         0      1257         1         0
      1260         1         0      1263         1         0      1266         1         0
      1269         1         0      1272         1         0      1276         1         0
      1279         1         0      1282         1         0      1285         1         0
      1288         1         0      1291         1         0      1294         1         0
      1297         1         0      1300         1         0      1303         1         0
      1306         1         0      1309         1         0      1312         1         0
      1315         1         0      1319         2         0      1335         2         0
      1346         1         0      1354         1         0      1363         1         0
      1366         1         0      1369         1         0      1372         1         0
      1375         1         0      1378         1         0      1381         1         0
      1383         1         0      1385         1         0      1388         1         0
      1391         1         0      1394         1         0      1397         1         0
      1400         1         0      1403         1         0      1406         1         0
      1410         1         0      1413         1         0      1416         1         0
      1419         1         0      1422         1         0      1425         1         0
      1428         1         0      1431         1         0      1434         1         0
      1437         1         0      1440         1         0      1443         1         0
      1446         1         0      1449         1         0      1453         2         0
      1469         2         0      1480         1         0      1488         1         0
      1497         1         0      1500         1         0      1503         1         0
      1506         1         0      1509         1         0      1512         1         0
      1515         1         0      1517         1         0      1519         1         0
      1522         1         0      1525         1         0      1528         1         0
      1531         1         0      1534         1         0      1537         1         0
      1540         1         0      1544         1         0      1547         1         0
      1550         1         0      1553         1         0      1556         1         0
      1559         1         0      1562         1         0      1565         1         0
      1568         1         0      1571         1         0      1574         1         0
      1577         1         0      1580         1         0      1583         1         0
      1587         2         0      1593         2         0      1596         2         0
      1607         1         0      1615         1         0      1624         1         0
      1627         1         0      1630         1         0      1633         1         0
      1636         1         0      1639         1         0      1642         1         0
      1644         1         0      1646         1         0      1649         1         0
      1652         1         0      1655         1         0      1658         1         0
      1661         1         0      1664         1         0      1667         1         0
      1671         1         0      1674         1         0      1677         1         0
      1680         1         0      1683         1         0      1686         1         0
      1689         1         0      1692         1         0      1695         1         0
      1698         1         0      1701         1         0      1704         1         0
      1707         1         0      1710         1         0      1714         2         0
      1730         2         0      1741         1         0      1749         1         0
      1758         1         0      1761         1         0      1764         1         0
      1767         1         0      1770         1         0      1773         1         0
      1776         1         0      1778         1         0      1780         1         0
      1783         1         0      1786         1         0      1789         1         0
      1792         1         0      1795         1         0      1798         1         0
      1801         1         0      1805         1         0      1808         1         0
      1811         1         0      1814         1         0      1817         1         0
      1820         1         0      1823         1         0      1826         1         0
      1829         1         0      1832         1         0      1835         1         0
      1838         1         0      1841         1         0      1844         1         0
      1848         2         0      1864         2         0      1875         1         0
      1883         1         0      1892         1         0      1895         1         0
      1898         1         0      1901         1         0      1904         1         0
      1907         1         0      1910         1         0      1912         1         0
      1914         1         0      1917         1         0      1920         1         0
      1923         1         0      1926         1         0      1929         1         0
      1932         1         0      1935         1         0      1939         1         0
      1942         1         0      1945         1         0      1948         1         0
      1951         1         0      1954         1         0      1957         1         0
      1960         1         0      1963         1         0      1966         1         0
      1969         1         0      1972         1         0      1975         1         0
      1978         1         0      1982         2         0      1998         2         0
      2009         1         0      2017         1         0      2026         1         0
      2029         1         0      2032         1         0      2035         1         0
      2038         1         0      2041         1         0      2044         1         0
      2046         1         0      2048         1         0      2051         1         0
      2054         1         0      2057         1         0      2060         1         0
      2063         1         0      2066         1         0      2069         1         0
      2073         1         0      2076         1         0      2079         1         0
      2082         1         0      2085         1         0      2088         1         0
      2091         1         0      2094         1         0      2097         1         0
      2100         1         0      2103         1         0      2106         1         0
      2109         1         0      2112         1         0      2116         2         0
      2132         2         0      2143         1         0      2151         1         0
      2160         1         0      2163         1         0      2166         1         0
      2169         1         0      2172         1         0      2175         1         0
      2178         1         0      2180         1         0      2182         1         0
      2185         1         0      2188         1         0      2191         1         0
      2194         1         0      2197         1         0      2200         1         0
      2203         1         0      2207         1         0      2210         1         0
      2213         1         0      2216         1         0      2219         1         0
      2222         1         0      2225         1         0      2228         1         0
      2231         1         0      2234         1         0      2237         1         0
      2240         1         0      2243         1         0      2246         1         0
      2250         2         0      2266         2         0      2277         1         0
      2285         1         0      2294         1         0      2297         1         0
      2300         1         0      2303         1         0      2306         1         0
      2309         1         0      2312         1         0      2314         1         0
      2316         1         0      2319         1         0      2322         1         0
      2325         1         0      2328         1         0      2331         1         0
      2334         1         0      2337         1         0      2341         1         0
      2344         1         0      2347         1         0      2350         1         0
      2353         1         0      2356         1         0      2359         1         0
      2362         1         0      2365         1         0      2368         1         0
      2371         1         0      2374         1         0      2377         1         0
      2380         1         0      2384         2         0      2400         2         0
      2411         1         0      2419         1         0      2428         1         0
      2431         1         0      2434         1         0      2437         1         0
      2440         1         0      2443         1         0      2446         1         0
      2448         1         0      2450         1         0      2453         1         0
      2456         1         0      2459         1         0      2462         1         0
      2465         1         0      2468         1         0      2471         1         0
      2475         1         0      2478         1         0      2481         1         0
      2484         1         0      2487         1         0      2490         1         0
      2493         1         0      2496         1         0      2499         1         0
      2502         1         0      2505         1         0      2508         1         0
      2511         1         0      2514         1         0      2518         2         0
      2534         2         0      2545         1         0      2553         1         0
      2562         1         0      2565         1         0      2568         1         0
      2571         1         0      2574         1         0      2577         1         0
      2580         1         0      2582         1         0      2584         1         0
      2587         1         0      2590         1         0      2593         1         0
      2596         1         0      2599         1         0      2602         1         0
      2605         1         0      2609         1         0      2612         1         0
      2615         1         0      2618         1         0      2621         1         0
      2624         1         0      2627         1         0      2630         1         0
      2633         1         0      2636         1         0      2639         1         0
      2642         1         0      2645         1         0      2648         1         0
      2652         2         0      2668         2         0      2679         1         0
      2687         1         0      2696         1         0      2699         1         0
      2702         1         0      2705         1         0      2708         1         0
      2711         1         0      2714         1         0      2716         1         0
      2718         1         0      2721         1         0      2724         1         0
      2727         1         0      2730         1         0      2733         1         0
      2736         1         0      2739         1         0      2743         1         0
      2746         1         0      2749         1         0      2752         1         0
      2755         1         0      2758         1         0      2761         1         0
      2764         1         0      2767         1         0      2770         1         0
      2773         1         0      2776         1         0      2779         1         0
      2782         1         0      2786         2         0      2802         2         0
      2813         1         0      2821         1         0      2830         1         0
      2833         1         0      2836         1         0      2839         1         0
      2842         1         0      2845         1         0      2848         1         0
      2850         1         0      2852         1         0      2855         1         0
      2858         1         0      2861         1         0      2864         1         0
      2867         1         0      2870         1         0      2873         1         0
      2877         1         0      2880         1         0      2883         1         0
      2886         1         0      2889         1         0      2892         1         0
      2895         1         0      2898         1         0      2901         1         0
      2904         1         0      2907         1         0      2910         1         0
      2913         1         0      2916         1         0      2920         2         0
      2936         2         0      2947         1         0      2955         1         0
      2964         1         0      2967         1         0      2970         1         0
      2973         1         0      2976         1         0      2979         1         0
      2982         1         0      2984         1         0      2986         1         0
      2989         1         0      2992         1         0      2995         1         0
      2998         1         0      3001         1         0      3004         1         0
      3007         1         0      3011         1         0      3014         1         0
      3017         1         0      3020         1         0      3023         1         0
      3026         1         0      3029         1         0      3032         1         0
      3035         1         0      3038         1         0      3041         1         0
      3044         1         0      3047         1         0      3050         1         0
      3054         2         0      3070         2         0      3081         1         0
      3089         1         0      3098         1         0      3101         1         0
      3104         1         0      3107         1         0      3110         1         0
      3113         1         0      3116         1         0      3118         1         0
      3120         1         0      3123         1         0      3126         1         0
      3129         1         0      3132         1         0      3135         1         0
      3138         1         0      3141         1         0      3145         1         0
      3148         1         0      3151         1         0      3154         1         0
      3157         1         0      3160         1         0      3163         1         0
      3166         1         0      3169         1         0      3172         1         0
      3175         1         0      3178         1         0      3181         1         0
      3184         1         0      3188         2         0      3194         2         0
      3197         2         0      3208         1         0      3216         1         0
      3225         1         0      3228         1         0      3231         1         0
      3234         1         0      3237         1         0      3240         1         0
      3243         1         0      3245         1         0      3247         1         0
      3250         1         0      3253         1         0      3256         1         0
      3259         1         0      3262         1         0      3265         1         0
      3268         1         0      3272         1         0      3275         1         0
      3278         1         0      3281         1         0      3284         1         0
      3287         1         0      3290         1         0      3293         1         0
      3296         1         0      3299         1         0      3302         1         0
      3305         1         0      3308         1         0      3311         1         0
      3315         2         0      3331         2         0      3342         1         0
      3350         1         0      3359         1         0      3362         1         0
      3365         1         0      3368         1         0      3371         1         0
      3374         1         0      3377         1         0      3379         1         0
      3381         1         0      3384         1         0      3387         1         0
      3390         1         0      3393         1         0      3396         1         0
      3399         1         0      3402         1         0      3406         1         0
      3409         1         0      3412         1         0      3415         1         0
      3418         1         0      3421         1         0      3424         1         0
      3427         1         0      3430         1         0      3433         1         0
      3436         1         0      3439         1         0      3442         1         0
      3445         1         0      3449         2         0      3465         2         0
      3476         1         0      3484         1         0      3493         1         0
      3496         1         0      3499         1         0      3502         1         0
      3505         1         0      3508         1         0      3511         1         0
      3513         1         0      3515         1         0      3518         1         0
      3521         1         0      3524         1         0      3527         1         0
      3530         1         0      3533         1         0      3536         1         0
      3540         1         0      3543         1         0      3546         1         0
      3549         1         0      3552         1         0      3555         1         0
      3558         1         0      3561         1         0      3564         1         0
      3567         1         0      3570         1         0      3573         1         0
      3576         1         0      3579         1         0      3583         2         0
      3599         2         0      3610         1         0      3618         1         0
      3627         1         0      3630         1         0      3633         1         0
      3636         1         0      3639         1         0      3642         1         0
      3645         1         0      3647         1         0      3649         1         0
      3652         1         0      3655         1         0      3658         1         0
      3661         1         0      3664         1         0      3667         1         0
      3670         1         0      3674         1         0      3677         1         0
      3680         1         0      3683         1         0      3686         1         0
      3689         1         0      3692         1         0      3695         1         0
      3698         1         0      3701         1         0      3704         1         0
      3707         1         0      3710         1         0      3713         1         0
      3717         2         0      3733         2         0      3744         1         0
      3752         1         0      3761         1         0      3764         1         0
      3767         1         0      3770         1         0      3773         1         0
      3776         1         0      3779         1         0      3781         1         0
      3783         1         0      3786         1         0      3789         1         0
      3792         1         0      3795         1         0      3798         1         0
      3801         1         0      3804         1         0      3808         1         0
      3811         1         0      3814         1         0      3817         1         0
      3820         1         0      3823         1         0      3826         1         0
      3829         1         0      3832         1         0      3835         1         0
      3838         1         0      3841         1         0      3844         1         0
      3847         1         0      3851         2         0      3867         2         0
      3878         1         0      3886         1         0      3895         1         0
      3898         1         0      3901         1         0      3904         1         0
      3907         1         0      3910         1         0      3913         1         0
      3915         1         0      3917         1         0      3920         1         0
      3923         1         0      3926         1         0      3929         1         0
      3932         1         0      3935         1         0      3938         1         0
      3942         1         0      3945         1         0      3948         1         0
      3951         1         0      3954         1         0      3957         1         0
      3960         1         0      3963         1         0      3966         1         0
      3969         1         0      3972         1         0      3975         1         0
      3978         1         0      3981         1         0      3985         2         0
      3991         2         0      3994         2         0      4005         1         0
      4013         1         0      4022         1         0      4025         1         0
      4028         1         0      4031         1         0      4034         1         0
      4037         1         0      4040         1         0      4042         1         0
      4044         1         0      4047         1         0      4050         1         0
      4053         1         0      4056         1         0      4059         1         0
      4062         1         0      4065         1         0      4069         1         0
      4072         1         0      4075         1         0      4078         1         0
      4081         1         0      4084         1         0      4087         1         0
      4090         1         0      4093         1         0      4096         1         0
      4099         1         0      4102         1         0      4105         1         0
      4108         1         0      4112         2         0      4128         2         0
      4139         1         0      4147         1         0      4156         1         0
      4159         1         0      4162         1         0      4165         1         0
      4168         1         0      4171         1         0      4174         1         0
      4176         1         0      4178         1         0      4181         1         0
      4184         1         0      4187         1         0      4190         1         0
      4193         1         0      4196         1         0      4199         1         0
      4203         1         0      4206         1         0      4209         1         0
      4212         1         0      4215         1         0      4218         1         0
      4221         1         0      4224         1         0      4227         1         0
      4230         1         0      4233         1         0      4236         1         0
      4239         1         0      4242         1         0      4246         2         0
      4262         2         0      4273         1         0      4281         1         0
      4290         1         0      4293         1         0      4296         1         0
      4299         1         0      4302         1         0      4305         1         0
      4308         1         0      4310         1         0      4312         1         0
      4315         1         0      4318         1         0      4321         1         0
      4324         1         0      4327         1         0      4330         1         0
      4333         1         0      4337         1         0      4340         1         0
      4343         1         0      4346         1         0      4349         1         0
      4352         1         0      4355         1         0      4358         1         0
      4361         1         0      4364         1         0      4367         1         0
      4370         1         0      4373         1         0      4376         1         0
      4380         2         0      4396         2         0      4407         1         0
      4415         1         0      4424         1         0      4427         1         0
      4430         1         0      4433         1         0      4436         1         0
      4439         1         0      4442         1         0      4444         1         0
      4446         1         0      4449         1         0      4452         1         0
      4455         1         0      4458         1         0      4461         1         0
      4464         1         0      4467         1         0      4471         1         0
      4474         1         0      4477         1         0      4480         1         0
      4483         1         0      4486         1         0      4489         1         0
      4492         1         0      4495         1         0      4498         1         0
      4501         1         0      4504         1         0      4507         1         0
      4510         1         0      4514         2         0      4530         2         0
      4541         1         0      4549         1         0      4558         1         0
      4561         1         0      4564         1         0      4567         1         0
      4570         1         0      4573         1         0      4576         1         0
      4578         1         0      4580         1         0      4583         1         0
      4586         1         0      4589         1         0      4592         1         0
      4595         1         0      4598         1         0      4601         1         0
      4605         1         0      4608         1         0      4611         1         0
      4614         1         0      4617         1         0      4620         1         0
      4623         1         0      4626         1         0      4629         1         0
      4632         1         0      4635         1         0      4638         1         0
      4641         1         0      4644         1         0      4648         2         0
      4664         2         0      4675         1         0      4683         1         0
      4692         1         0      4695         1         0      4698         1         0
      4701         1         0      4704         1         0      4707         1         0
      4710         1         0      4712         1         0      4714         1         0
      4717         1         0      4720         1         0      4723         1         0
      4726         1         0      4729         1         0      4732         1         0
      4735         1         0      4739         1         0      4742         1         0
      4745         1         0      4748         1         0      4751         1         0
      4754         1         0      4757         1         0      4760         1         0
      4763         1         0      4766         1         0      4769         1         0
      4772         1         0      4775         1         0      4778         1         0
      4782         2         0      4788         2         0      4791         2         0
      4802         1         0      4810         1         0      4819         1         0
      4822         1         0      4825         1         0      4828         1         0
      4831         1         0      4834         1         0      4837         1         0
      4839         1         0      4841         1         0      4844         1         0
      4847         1         0      4850         1         0      4853         1         0
      4856         1         0      4859         1         0      4862         1         0
      4866         1         0      4869         1         0      4872         1         0
      4875         1         0      4878         1         0      4881         1         0
      4884         1         0      4887         1         0      4890         1         0
      4893         1         0      4896         1         0      4899         1         0
      4902         1         0      4905         1         0      4909         2         0
      4925         2         0      4936         1         0      4944         1         0
      4953         1         0      4956         1         0      4959         1         0
      4962         1         0      4965         1         0      4968         1         0
      4971         1         0      4973         1         0      4975         1         0
      4978         1         0      4981         1         0      4984         1         0
      4987         1         0      4990         1         0      4993         1         0
      4996         1         0      5000         1         0      5003         1         0
      5006         1         0      5009         1         0      5012         1         0
      5015         1         0      5018         1         0      5021         1         0
      5024         1         0      5027         1         0      5030         1         0
      5033         1         0      5036         1         0      5039         1         0
      5043         2         0      5059         2         0      5070         1         0
      5078         1         0      5087         1         0      5090         1         0
      5093         1         0      5096         1         0      5099         1         0
      5102         1         0      5105         1         0      5107         1         0
      5109         1         0      5112         1         0      5115         1         0
      5118         1         0      5121         1         0      5124         1         0
      5127         1         0      5130         1         0      5134         1         0
      5137         1         0      5140         1         0      5143         1         0
      5146         1         0      5149         1         0      5152         1         0
      5155         1         0      5158         1         0      5161         1         0
      5164         1         0      5167         1         0      5170         1         0
      5173         1         0      5177         2         0      5193         2         0
      5204         1         0      5212         1         0      5221         1         0
      5224         1         0      5227         1         0      5230         1         0
      5233         1         0      5236         1         0      5239         1         0
      5241         1         0      5243         1         0      5246         1         0
      5249         1         0      5252         1         0      5255         1         0
      5258         1         0      5261         1         0      5264         1         0
      5268         1         0      5271         1         0      5274         1         0
      5277         1         0      5280         1         0      5283         1         0
      5286         1         0      5289         1         0      5292         1         0
      5295         1         0      5298         1         0      5301         1         0
      5304         1         0      5307         1         0      5311         2         0
      5327         2         0      5338         1         0      5346         1         0
      5355         1         0      5358         1         0      5361         1         0
      5364         1         0      5367         1         0      5370         1         0
      5373         1         0      5375         1         0      5377         1         0
      5380         1         0      5383         1         0      5386         1         0
      5389         1         0      5392         1         0      5395         1         0
      5398         1         0      5402         1         0      5405         1         0
      5408         1         0      5411         1         0      5414         1         0
      5417         1         0      5420         1         0      5423         1         0
      5426         1         0      5429         1         0      5432         1         0
      5435         1         0      5438         1         0      5441         1         0
      5445         2         0      5461         2         0      5472         1         0
      5480         1         0      5489         1         0      5492         1         0
      5495         1         0      5498         1         0      5501         1         0
      5504         1         0      5507         1         0      5509         1         0
      5511         1         0      5514         1         0      5517         1         0
      5520         1         0      5523         1         0      5526         1         0
      5529         1         0      5532         1         0      5536         1         0
      5539         1         0      5542         1         0      5545         1         0
      5548         1         0      5551         1         0      5554         1         0
      5557         1         0      5560         1         0      5563         1         0
      5566         1         0      5569         1         0      5572         1         0
      5575         1         0      5579         2         0      5595         2         0
      5606         1         0      5614         1         0      5623         1         0
      5626         1         0      5629         1         0      5632         1         0
      5635         1         0      5638         1         0      5641         1         0
      5643         1         0      5645         1         0      5648         1         0
      5651         1         0      5654         1         0      5657         1         0
      5660         1         0      5663         1         0      5666         1         0
      5670         1         0      5673         1         0      5676         1         0
      5679         1         0      5682         1         0      5685         1         0
      5688         1         0      5691         1         0      5694         1         0
      5697         1         0      5700         1         0      5703         1         0
      5706         1         0      5709         1         0      5713         2         0
      5729         2         0      5740         1         0      5748         1         0
      5757         1         0      5760         1         0      5763         1         0
      5766         1         0      5769         1         0      5772         1         0
      5775         1         0      5777         1         0      5779         1         0
      5782         1         0      5785         1         0      5788         1         0
      5791         1         0      5794         1         0      5797         1         0
      5800         1         0      5804         1         0      5807         1         0
      5810         1         0      5813         1         0      5816         1         0
      5819         1         0      5822         1         0      5825         1         0
      5828         1         0      5831         1         0      5834         1         0
      5837         1         0      5840         1         0      5843         1         0
      5847         2         0      5863         2         0      5874         1         0
      5882         1         0      5891         1         0      5894         1         0
      5897         1         0      5900         1         0      5903         1         0
      5906         1         0      5909         1         0      5911         1         0
      5913         1         0      5916         1         0      5919         1         0
      5922         1         0      5925         1         0      5928         1         0
      5931         1         0      5934         1         0      5938         1         0
      5941         1         0      5944         1         0      5947         1         0
      5950         1         0      5953         1         0      5956         1         0
      5959         1         0      5962         1         0      5965         1         0
      5968         1         0      5971         1         0      5974         1         0
      5977         1         0      5981         2         0      5997         2         0
      6008         1         0      6016         1         0      6025         1         0
      6028         1         0      6031         1         0      6034         1         0
      6037         1         0      6040         1         0      6043         1         0
      6045         1         0      6047         1         0      6050         1         0
      6053         1         0      6056         1         0      6059         1         0
      6062         1         0      6065         1         0      6068         1         0
      6072         1         0      6075         1         0      6078         1         0
      6081         1         0      6084         1         0      6087         1         0
      6090         1         0      6093         1         0      6096         1         0
      6099         1         0      6102         1         0      6105         1         0
      6108         1         0      6111         1         0      6115         2         0
      6131         2         0      6142         1         0      6150         1         0
      6159         1         0      6162         1         0      6165         1         0
      6168         1         0      6171         1         0      6174         1         0
      6177         1         0      6179         1         0      6181         1         0
      6184         1         0      6187         1         0      6190         1         0
      6193         1         0      6196         1         0      6199         1         0
      6202         1         0      6206         1         0      6209         1         0
      6212         1         0      6215         1         0      6218         1         0
      6221         1         0      6224         1         0      6227         1         0
      6230         1         0      6233         1         0      6236         1         0
      6239         1         0      6242         1         0      6245         1         0
      6249         2         0      6265         2         0      6276         1         0
      6284         1         0      6293         1         0      6296         1         0
      6299         1         0      6302         1         0      6305         1         0
      6308         1         0      6311         1         0      6313         1         0
      6315         1         0      6318         1         0      6321         1         0
      6324         1         0      6327         1         0      6330         1         0
      6333         1         0      6336         1         0      6340         1         0
      6343         1         0      6346         1         0      6349         1         0
      6352         1         0      6355         1         0      6358         1         0
      6361         1         0      6364         1         0      6367         1         0
      6370         1         0      6373         1         0      6376         1         0
      6379         1         0      6383         2         0      6389         2         0
      6392         2         0      6403         1         0      6411         1         0
      6420         1         0      6423         1         0      6426         1         0
      6429         1         0      6432         1         0      6435         1         0
      6438         1         0      6440         1         0      6442         1         0
      6445         1         0      6448         1         0      6451         1         0
      6454         1         0      6457         1         0      6460         1         0
      6463         1         0      6467         1         0      6470         1         0
      6473         1         0      6476         1         0      6479         1         0
      6482         1         0      6485         1         0      6488         1         0
      6491         1         0      6494         1         0      6497         1         0
      6500         1         0      6503         1         0      6506         1         0
      6510         2         0      6516         2         0      6519         2         0
      6530         1         0      6538         1         0      6547         1         0
      6550         1         0      6553         1         0      6556         1         0
      6559         1         0      6562         1         0      6565         1         0
      6567         1         0      6569         1         0      6572         1         0
      6575         1         0      6578         1         0      6581         1         0
      6584         1         0      6587         1         0      6590         1         0
      6594         1         0      6597         1         0      6600         1         0
      6603         1         0      6606         1         0      6609         1         0
      6612         1         0      6615         1         0      6618         1         0
      6621         1         0      6624         1         0      6627         1         0
      6630         1         0      6633         1         0      6637         2         0
      6643         2         0      6646         2         0      6657         1         0
      6665         1         0      6674         1         0      6677         1         0
      6680         1         0      6683         1         0      6686         1         0
      6689         1         0      6692         1         0      6694         1         0
      6696         1         0      6699         1         0      6702         1         0
      6705         1         0      6708         1         0      6711         1         0
      6714         1         0      6717         1         0      6721         1         0
      6724         1         0      6727         1         0      6730         1         0
      6733         1         0      6736         1         0      6739         1         0
      6742         1         0      6745         1         0      6748         1         0
      6751         1         0      6754         1         0      6757         1         0
      6760         1         0      6764         2         0      6780         2         0
      6791         1         0      6799         1         0      6808         1         0
      6811         1         0      6814         1         0      6817         1         0
      6820         1         0      6823         1         0      6826         1         0
      6828         1         0      6830         1         0      6833         1         0
      6836         1         0      6839         1         0      6842         1         0
      6845         1         0      6848         1         0      6851         1         0
      6855         1         0      6858         1         0      6861         1         0
      6864         1         0      6867         1         0      6870         1         0
      6873         1         0      6876         1         0      6879         1         0
      6882         1         0      6885         1         0      6888         1         0
      6891         1         0      6894         1         0      6898         2         0
      6914         2         0      6925         1         0      6933         1         0
      6942         1         0      6945         1         0      6948         1         0
      6951         1         0      6954         1         0      6957         1         0
      6960         1         0      6962         1         0      6964         1         0
      6967         1         0      6970         1         0      6973         1         0
      6976         1         0      6979         1         0      6982         1         0
      6985         1         0      6989         1         0      6992         1         0
      6995         1         0      6998         1         0      7001         1         0
      7004         1         0      7007         1         0      7010         1         0
      7013         1         0      7016         1         0      7019         1         0
      7022         1         0      7025         1         0      7028         1         0
      7032         2         0      7048         2         0      7059         1         0
      7067         1         0      7076         1         0      7079         1         0
      7082         1         0      7085         1         0      7088         1         0
      7091         1         0      7094         1         0      7096         1         0
      7098         1         0      7101         1         0      7104         1         0
      7107         1         0      7110         1         0      7113         1         0
      7116         1         0      7119         1         0      7123         1         0
      7126         1         0      7129         1         0      7132         1         0
      7135         1         0      7138         1         0      7141         1         0
      7144         1         0      7147         1         0      7150         1         0
      7153         1         0      7156         1         0      7159         1         0
      7162         1         0      7166         2         0      7172         2         0
      7175         2         0      7186         1         0      7194         1         0
      7203         1         0      7206         1         0      7209         1         0
      7212         1         0      7215         1         0      7218         1         0
      7221         1         0      7223         1         0      7225         1         0
      7228         1         0      7231         1         0      7234         1         0
      7237         1         0      7240         1         0      7243         1         0
      7246         1         0      7250         1         0      7253         1         0
      7256         1         0      7259         1         0      7262         1         0
      7265         1         0      7268         1         0      7271         1         0
      7274         1         0      7277         1         0      7280         1         0
      7283         1         0      7286         1         0      7289         1         0
      7293         2         0      7309         2         0      7320         1         0
      7328         1         0      7337         1         0      7340         1         0
      7343         1         0      7346         1         0      7349         1         0
      7352         1         0      7355         1         0      7357         1         0
      7359         1         0      7362         1         0      7365         1         0
      7368         1         0      7371         1         0      7374         1         0
      7377         1         0      7380         1         0      7384         1         0
      7387         1         0      7390         1         0      7393         1         0
      7396         1         0      7399         1         0      7402         1         0
      7405         1         0      7408         1         0      7411         1         0
      7414         1         0      7417         1         0      7420         1         0
      7423         1         0      7427         2         0      7443         2         0
      7454         1         0      7462         1         0      7471         1         0
      7474         1         0      7477         1         0      7480         1         0
      7483         1         0      7486         1         0      7489         1         0
      7491         1         0      7493         1         0      7496         1         0
      7499         1         0      7502         1         0      7505         1         0
      7508         1         0      7511         1         0      7514         1         0
      7518         1         0      7521         1         0      7524         1         0
      7527         1         0      7530         1         0      7533         1         0
      7536         1         0      7539         1         0      7542         1         0
      7545         1         0      7548         1         0      7551         1         0
      7554         1         0      7557         1         0      7561         2         0
      7567         2         0      7570         2         0      7581         1         0
      7589         1         0      7598         1         0      7601         1         0
      7604         1         0      7607         1         0      7610         1         0
      7613         1         0      7616         1         0      7618         1         0
      7620         1         0      7623         1         0      7626         1         0
      7629         1         0      7632         1         0      7635         1         0
      7638         1         0      7641         1         0      7645         1         0
      7648         1         0      7651         1         0      7654         1         0
      7657         1         0      7660         1         0      7663         1         0
      7666         1         0      7669         1         0      7672         1         0
      7675         1         0      7678         1         0      7681         1         0
      7684         1         0      7688         2         0      7704         2         0
      7715         1         0      7723         1         0      7732         1         0
      7735         1         0      7738         1         0      7741         1         0
      7744         1         0      7747         1         0      7750         1         0
      7752         1         0      7754         1         0      7757         1         0
      7760         1         0      7763         1         0      7766         1         0
      7769         1         0      7772         1         0      7775         1         0
      7779         1         0      7782         1         0      7785         1         0
      7788         1         0      7791         1         0      7794         1         0
      7797         1         0      7800         1         0      7803         1         0
      7806         1         0      7809         1         0      7812         1         0
      7815         1         0      7818         1         0      7822         2         0
      7838         2         0      7849         1         0      7857         1         0
      7866         1         0      7869         1         0      7872         1         0
      7875         1         0      7878         1         0      7881         1         0
      7884         1         0      7886         1         0      7888         1         0
      7891         1         0      7894         1         0      7897         1         0
      7900         1         0      7903         1         0      7906         1         0
      7909         1         0      7913         1         0      7916         1         0
      7919         1         0      7922         1         0      7925         1         0
      7928         1         0      7931         1         0      7934         1         0
      7937         1         0      7940         1         0      7943         1         0
      7946         1         0      7949         1         0      7952         1         0
      7956         2         0      7972         2         0      7983         1         0
      7991         1         0      8000         1         0      8003         1         0
      8006         1         0      8009         1         0      8012         1         0
      8015         1         0      8018         1         0      8020         1         0
      8022         1         0      8025         1         0      8028         1         0
      8031         1         0      8034         1         0      8037         1         0
      8040         1         0      8043         1         0      8047         1         0
      8050         1         0      8053         1         0      8056         1         0
      8059         1         0      8062         1         0      8065         1         0
      8068         1         0      8071         1         0      8074         1         0
      8077         1         0      8080         1         0      8083         1         0
      8086         1         0      8090         2         0      8106         2         0
      8117         1         0      8125         1         0      8134         1         0
      8137         1         0      8140         1         0      8143         1         0
      8146         1         0      8149         1         0      8152         1         0
      8154         1         0      8156         1         0      8159         1         0
      8162         1         0      8165         1         0      8168         1         0
      8171         1         0      8174         1         0      8177         1         0
      8181         1         0      8184         1         0      8187         1         0
      8190         1         0      8193         1         0      8196         1         0
      8199         1         0      8202         1         0      8205         1         0
      8208         1         0      8211         1         0      8214         1         0
      8217         1         0      8220         1         0      8224         2         0
      8240         2         0      8251         1         0      8259         1         0
      8268         1         0      8271         1         0      8274         1         0
      8277         1         0      8280         1         0      8283         1         0
      8286         1         0      8288         1         0      8290         1         0
      8293         1         0      8296         1         0      8299         1         0
      8302         1         0      8305         1         0      8308         1         0
      8311         1         0      8315         1         0      8318         1         0
      8321         1         0      8324         1         0      8327         1         0
      8330         1         0      8333         1         0      8336         1         0
      8339         1         0      8342         1         0      8345         1         0
      8348         1         0      8351         1         0      8354         1         0
      8358         2         0      8364         2         0      8367         2         0
      8378         1         0      8386         1         0      8395         1         0
      8398         1         0      8401         1         0      8404         1         0
      8407         1         0      8410         1         0      8413         1         0
      8415         1         0      8417         1         0      8420         1         0
      8423         1         0      8426         1         0      8429         1         0
      8432         1         0      8435         1         0      8438         1         0
      8442         1         0      8445         1         0      8448         1         0
      8451         1         0      8454         1         0      8457         1         0
      8460         1         0      8463         1         0      8466         1         0
      8469         1         0      8472         1         0      8475         1         0
      8478         1         0      8481         1         0      8485         2         0
      8501         2         0      8512         1         0      8520         1         0
      8529         1         0      8532         1         0      8535         1         0
      8538         1         0      8541         1         0      8544         1         0
      8547         1         0      8549         1         0      8551         1         0
      8554         1         0      8557         1         0      8560         1         0
      8563         1         0      8566         1         0      8569         1         0
      8572         1         0      8576         1         0      8579         1         0
      8582         1         0      8585         1         0      8588         1         0
      8591         1         0      8594         1         0      8597         1         0
      8600         1         0      8603         1         0      8606         1         0
      8609         1         0      8612         1         0      8615         1         0
      8619         2         0      8635         2         0      8646         1         0
      8654         1         0      8663         1         0      8666         1         0
      8669         1         0      8672         1         0      8675         1         0
      8678         1         0      8681         1         0      8683         1         0
      8685         1         0      8688         1         0      8691         1         0
      8694         1         0      8697         1         0      8700         1         0
      8703         1         0      8706         1         0      8710         1         0
      8713         1         0      8716         1         0      8719         1         0
      8722         1         0      8725         1         0      8728         1         0
      8731         1         0      8734         1         0      8737         1         0
      8740         1         0      8743         1         0      8746         1         0
      8749         1         0      8753         2         0      8769         2         0
      8780         1         0      8788         1         0      8797         1         0
      8800         1         0      8803         1         0      8806         1         0
      8809         1         0      8812         1         0      8815         1         0
      8817         1         0      8819         1         0      8822         1         0
      8825         1         0      8828         1         0      8831         1         0
      8834         1         0      8837         1         0      8840         1         0
      8844         1         0      8847         1         0      8850         1         0
      8853         1         0      8856         1         0      8859         1         0
      8862         1         0      8865         1         0      8868         1         0
      8871         1         0      8874         1         0      8877         1         0
      8880         1         0      8883         1         0      8887         2         0
      8893         2         0      8896         2         0      8907         1         0
      8915         1         0      8924         1         0      8927         1         0
      8930         1         0      8933         1         0      8936         1         0
      8939         1         0      8942         1         0      8944         1         0
      8946         1         0      8949         1         0      8952         1         0
      8955         1         0      8958         1         0      8961         1         0
      8964         1         0      8967         1         0      8971         1         0
      8974         1         0      8977         1         0      8980         1         0
      8983         1         0      8986         1         0      8989         1         0
      8992         1         0      8995         1         0      8998         1         0
      9001         1         0      9004         1         0      9007         1         0
      9010         1         0      9014         2         0      9020         2         0
      9023         2         0      9034         1         0      9042         1         0
      9051         1         0      9054         1         0      9057         1         0
      9060         1         0      9063         1         0      9066         1         0
      9069         1         0      9071         1         0      9073         1         0
      9076         1         0      9079         1         0      9082         1         0
      9085         1         0      9088         1         0      9091         1         0
      9094         1         0      9098         1         0      9101         1         0
      9104         1         0      9107         1         0      9110         1         0
      9113         1         0      9116         1         0      9119         1         0
      9122         1         0      9125         1         0      9128         1         0
      9131         1         0      9134         1         0      9137         1         0
      9141         2         0      9157         2         0      9168         1         0
      9176         1         0      9185         1         0      9188         1         0
      9191         1         0      9194         1         0      9197         1         0
      9200         1         0      9203         1         0      9205         1         0
      9207         1         0      9210         1         0      9213         1         0
      9216         1         0      9219         1         0      9222         1         0
      9225         1         0      9228         1         0      9232         1         0
      9235         1         0      9238         1         0      9241         1         0
      9244         1         0      9247         1         0      9250         1         0
      9253         1         0      9256         1         0      9259         1         0
      9262         1         0      9265         1         0      9268         1         0
      9271         1         0      9275         2         0      9291         2         0
      9302         1         0      9310         1         0      9319         1         0
      9322         1         0      9325         1         0      9328         1         0
      9331         1         0      9334         1         0      9337         1         0
      9339         1         0      9341         1         0      9344         1         0
      9347         1         0      9350         1         0      9353         1         0
      9356         1         0      9359         1         0      9362         1         0
      9366         1         0      9369         1         0      9372         1         0
      9375         1         0      9378         1         0      9381         1         0
      9384         1         0      9387         1         0      9390         1         0
      9393         1         0      9396         1         0      9399         1         0
      9402         1         0      9405         1         0      9409         2         0
      9425         2         0      9436         1         0      9444         1         0
      9453         1         0      9456         1         0      9459         1         0
      9462         1         0      9465         1         0      9468         1         0
      9471         1         0      9473         1         0      9475         1         0
      9478         1         0      9481         1         0      9484         1         0
      9487         1         0      9490         1         0      9493         1         0
      9496         1         0      9500         1         0      9503         1         0
      9506         1         0      9509         1         0      9512         1         0
      9515         1         0      9518         1         0      9521         1         0
      9524         1         0      9527         1         0      9530         1         0
      9533         1         0      9536         1         0      9539         1         0
      9543         2         0      9559         2         0      9570         1         0
      9578         1         0      9587         1         0      9590         1         0
      9593         1         0      9596         1         0      9599         1         0
      9602         1         0      9605         1         0      9607         1         0
      9609         1         0      9612         1         0      9615         1         0
      9618         1         0      9621         1         0      9624         1         0
      9627         1         0      9630         1         0      9634         1         0
      9637         1         0      9640         1         0      9643         1         0
      9646         1         0      9649         1         0      9652         1         0
      9655         1         0      9658         1         0      9661         1         0
      9664         1         0      9667         1         0      9670         1         0
      9673         1         0      9677         2         0      9693         2         0
      9704         1         0      9712         1         0      9721         1         0
      9724         1         0      9727         1         0      9730         1         0
      9733         1         0      9736         1         0      9739         1         0
      9741         1         0      9743         1         0      9746         1         0
      9749         1         0      9752         1         0      9755         1         0
      9758         1         0      9761         1         0      9764         1         0
      9768         1         0      9771         1         0      9774         1         0
      9777         1         0      9780         1         0      9783         1         0
      9786         1         0      9789         1         0      9792         1         0
      9795         1         0      9798         1         0      9801         1         0
      9804         1         0      9807         1         0      9811         2         0
      9827         2         0      9838         1         0      9846         1         0
      9855         1         0      9858         1         0      9861         1         0
      9864         1         0      9867         1         0      9870         1         0
      9873         1         0      9875         1         0      9877         1         0
      9880         1         0      9883         1         0      9886         1         0
      9889         1         0      9892         1         0      9895         1         0
      9898         1         0      9902         1         0      9905         1         0
      9908         1         0      9911         1         0      9914         1         0
      9917         1         0      9920         1         0      9923         1         0
      9926         1         0      9929         1         0      9932         1         0
      9935         1         0      9938         1         0      9941         1         0
      9945         2         0      9951         2         0      9954         2         0
      9965         1         0      9973         1         0      9982         1         0
      9985         1         0      9988         1         0      9991         1         0
      9994         1         0      9997         1         0     10000         1         0
     10002         1         0     10004         1         0     10007         1         0
     10010         1         0     10013         1         0     10016         1         0
     10019         1         0     10022         1         0     10025         1         0
     10029         1         0     10032         1         0     10035         1         0
     10038         1         0     10041         1         0     10044         1         0
     10047         1         0     10050         1         0     10053         1         0
     10056         1         0     10059         1         0     10062         1         0
     10065         1         0     10068         1         0     10072         2         0
     10088         2         0     10099         1         0     10107         1         0
     10116         1         0     10119         1         0     10122         1         0
     10125         1         0     10128         1         0     10131         1         0
     10134         1         0     10136         1         0     10138         1         0
     10141         1         0     10144         1         0     10147         1         0
     10150         1         0     10153         1         0     10156         1         0
     10159         1         0     10163         1         0     10166         1         0
     10169         1         0     10172         1         0     10175         1         0
     10178         1         0     10181         1         0     10184         1         0
     10187         1         0     10190         1         0     10193         1         0
     10196         1         0     10199         1         0     10202         1         0
     10206         2         0     10212         2         0     10215         2         0
     10226         1         0     10234         1         0     10243         1         0
     10246         1         0     10249         1         0     10252         1         0
     10255         1         0     10258         1         0     10261         1         0
     10263         1         0     10265         1         0     10268         1         0
     10271         1         0     10274         1         0     10277         1         0
     10280         1         0     10283         1         0     10286         1         0
     10290         1         0     10293         1         0     10296         1         0
     10299         1         0     10302         1         0     10305         1         0
     10308         1         0     10311         1         0     10314         1         0
     10317         1         0     10320         1         0     10323         1         0
     10326         1         0     10329         1         0     10333         2         0
     10339         2         0     10342         2         0     10353         1         0
     10361         1         0     10370         1         0     10373         1         0
     10376         1         0     10379         1         0     10382         1         0
     10385         1         0     10388         1         0     10390         1         0
     10392         1         0     10395         1         0     10398         1         0
     10401         1         0     10404         1         0     10407         1         0
     10410         1         0     10413         1         0     10417         1         0
     10420         1         0     10423         1         0     10426         1         0
     10429         1         0     10432         1         0     10435         1         0
     10438         1         0     10441         1         0     10444         1         0
     10447         1         0     10450         1         0     10453         1         0
     10456         1         0     10460         2         0     10476         2         0
     10487         1         0     10495         1         0     10504         1         0
     10507         1         0     10510         1         0     10513         1         0
     10516         1         0     10519         1         0     10522         1         0
     10524         1         0     10526         1         0     10529         1         0
     10532         1         0     10535         1         0     10538         1         0
     10541         1         0     10544         1         0     10547         1         0
     10551         1         0     10554         1         0     10557         1         0
     10560         1         0     10563         1         0     10566         1         0
     10569         1         0     10572         1         0     10575         1         0
     10578         1         0     10581         1         0     10584         1         0
     10587         1         0     10590         1         0     10594         2         0
     10610         2         0     10621         1         0     10629         1         0
     10638         1         0     10641         1         0     10644         1         0
     10647         1         0     10650         1         0     10653         1         0
     10656         1         0     10658         1         0     10660         1         0
     10663         1         0     10666         1         0     10669         1         0
     10672         1         0     10675         1         0     10678         1         0
     10681         1         0     10685         1         0     10688         1         0
     10691         1         0     10694         1         0     10697         1         0
     10700         1         0     10703         1         0     10706         1         0
     10709         1         0     10712         1         0     10715         1         0
     10718         1         0     10721         1         0     10724         1         0
     10728         2         0     10734         2         0     10737         2         0
     10748         1         0     10756         1         0     10765         1         0
     10768         1         0     10771         1         0     10774         1         0
     10777         1         0     10780         1         0     10783         1         0
     10785         1         0     10787         1         0     10790         1         0
     10793         1         0     10796         1         0     10799         1         0
     10802         1         0     10805         1         0     10808         1         0
     10812         1         0     10815         1         0     10818         1         0
     10821         1         0     10824         1         0     10827         1         0
     10830         1         0     10833         1         0     10836         1         0
     10839         1         0     10842         1         0     10845         1         0
     10848         1         0     10851         1         0     10855         2         0
     10871         2         0     10882         1         0     10890         1         0
     10899         1         0     10902         1         0     10905         1         0
     10908         1         0     10911         1         0     10914         1         0
     10917         1         0     10919         1         0     10921         1         0
     10924         1         0     10927         1         0     10930         1         0
     10933         1         0     10936         1         0     10939         1         0
     10942         1         0     10946         1         0     10949         1         0
     10952         1         0     10955         1         0     10958         1         0
     10961         1         0     10964         1         0     10967         1         0
     10970         1         0     10973         1         0     10976         1         0
     10979         1         0     10982         1         0     10985         1         0
     10989         2         0     11005         2         0     11016         1         0
     11024         1         0     11033         1         0     11036         1         0
     11039         1         0     11042         1         0     11045         1         0
     11048         1         0     11051         1         0     11053         1         0
     11055         1         0     11058         1         0     11061         1         0
     11064         1         0     11067         1         0     11070         1         0
     11073         1         0     11076         1         0     11080         1         0
     11083         1         0     11086         1         0     11089         1         0
     11092         1         0     11095         1         0     11098         1         0
     11101         1         0     11104         1         0     11107         1         0
     11110         1         0     11113         1         0     11116         1         0
     11119         1         0     11123         2         0     11139         2         0
     11150         1         0     11158         1         0     11167         1         0
     11170         1         0     11173         1         0     11176         1         0
     11179         1         0     11182         1         0     11185         1         0
     11187         1         0     11189         1         0     11192         1         0
     11195         1         0     11198         1         0     11201         1         0
     11204         1         0     11207         1         0     11210         1         0
     11214         1         0     11217         1         0     11220         1         0
     11223         1         0     11226         1         0     11229         1         0
     11232         1         0     11235         1         0     11238         1         0
     11241         1         0     11244         1         0     11247         1         0
     11250         1         0     11253         1         0     11257         2         0
     11263         2         0     11266         2         0     11277         1         0
     11285         1         0     11294         1         0     11297         1         0
     11300         1         0     11303         1         0     11306         1         0
     11309         1         0     11312         1         0     11314         1         0
     11316         1         0     11319         1         0     11322         1         0
     11325         1         0     11328         1         0     11331         1         0
     11334         1         0     11337         1         0     11341         1         0
     11344         1         0     11347         1         0     11350         1         0
     11353         1         0     11356         1         0     11359         1         0
     11362         1         0     11365         1         0     11368         1         0
     11371         1         0     11374         1         0     11377         1         0
     11380         1         0     11384         2         0     11400         2         0
     11411         1         0     11419         1         0     11428         1         0
     11431         1         0     11434         1         0     11437         1         0
     11440         1         0     11443         1         0     11446         1         0
     11448         1         0     11450         1         0     11453         1         0
     11456         1         0     11459         1         0     11462         1         0
     11465         1         0     11468         1         0     11471         1         0
     11475         1         0     11478         1         0     11481         1         0
     11484         1         0     11487         1         0     11490         1         0
     11493         1         0     11496         1         0     11499         1         0
     11502         1         0     11505         1         0     11508         1         0
     11511         1         0     11514         1         0     11518         2         0
     11534         2         0     11545         1         0     11553         1         0
     11562         1         0     11565         1         0     11568         1         0
     11571         1         0     11574         1         0     11577         1         0
     11580         1         0     11582         1         0     11584         1         0
     11587         1         0     11590         1         0     11593         1         0
     11596         1         0     11599         1         0     11602         1         0
     11605         1         0     11609         1         0     11612         1         0
     11615         1         0     11618         1         0     11621         1         0
     11624         1         0     11627         1         0     11630         1         0
     11633         1         0     11636         1         0     11639         1         0
     11642         1         0     11645         1         0     11648         1         0
     11652         2         0     11668         2         0     11679         1         0
     11687         1         0     11696         1         0     11699         1         0
     11702         1         0     11705         1         0     11708         1         0
     11711         1         0     11714         1         0     11716         1         0
     11718         1         0     11721         1         0     11724         1         0
     11727         1         0     11730         1         0     11733         1         0
     11736         1         0     11739         1         0     11743         1         0
     11746         1         0     11749         1         0     11752         1         0
     11755         1         0     11758         1         0     11761         1         0
     11764         1         0     11767         1         0     11770         1         0
     11773         1         0     11776         1         0     11779         1         0
     11782         1         0     11786         2         0     11802         2         0
     11813         1         0     11821         1         0     11830         1         0
     11833         1         0     11836         1         0     11839         1         0
     11842         1         0     11845         1         0     11848         1         0
     11850         1         0     11852         1         0     11855         1         0
     11858         1         0     11861         1         0     11864         1         0
     11867         1         0     11870         1         0     11873         1         0
     11877         1         0     11880         1         0     11883         1         0
     11886         1         0     11889         1         0     11892         1         0
     11895         1         0     11898         1         0     11901         1         0
     11904         1         0     11907         1         0     11910         1         0
     11913         1         0     11916         1         0     11920         2         0
     11936         2         0     11947         1         0     11955         1         0
     11964         1         0     11967         1         0     11970         1         0
     11973         1         0     11976         1         0     11979         1         0
     11982         1         0     11984         1         0     11986         1         0
     11989         1         0     11992         1         0     11995         1         0
     11998         1         0     12001         1         0     12004         1         0
     12007         1         0     12011         1         0     12014         1         0
     12017         1         0     12020         1         0     12023         1         0
     12026         1         0     12029         1         0     12032         1         0
     12035         1         0     12038         1         0     12041         1         0
     12044         1         0     12047         1         0     12050         1         0
     12054         2         0     12070         2         0     12081         1         0
     12089         1         0     12098         1         0     12101         1         0
     12104         1         0     12107         1         0     12110         1         0
     12113         1         0     12116         1         0     12118         1         0
     12120         1         0     12123         1         0     12126         1         0
     12129         1         0     12132         1         0     12135         1         0
     12138         1         0     12141         1         0     12145         1         0
     12148         1         0     12151         1         0     12154         1         0
     12157         1         0     12160         1         0     12163         1         0
     12166         1         0     12169         1         0     12172         1         0
     12175         1         0     12178         1         0     12181         1         0
     12184         1         0     12188         2         0     12204         2         0
     12215         1         0     12223         1         0     12232         1         0
     12235         1         0     12238         1         0     12241         1         0
     12244         1         0     12247         1         0     12250         1         0
     12252         1         0     12254         1         0     12257         1         0
     12260         1         0     12263         1         0     12266         1         0
     12269         1         0     12272         1         0     12275         1         0
     12279         1         0     12282         1         0     12285         1         0
     12288         1         0     12291         1         0     12294         1         0
     12297         1         0     12300         1         0     12303         1         0
     12306         1         0     12309         1         0     12312         1         0
     12315         1         0     12318         1         0     12322         2         0
     12338         2         0     12349         1         0     12357         1         0
     12366         1         0     12369         1         0     12372         1         0
     12375         1         0     12378         1         0     12381         1         0
     12384         1         0     12386         1         0     12388         1         0
     12391         1         0     12394         1         0     12397         1         0
     12400         1         0     12403         1         0     12406         1         0
     12409         1         0     12413         1         0     12416         1         0
     12419         1         0     12422         1         0     12425         1         0
     12428         1         0     12431         1         0     12434         1         0
     12437         1         0     12440         1         0     12443         1         0
     12446         1         0     12449         1         0     12452         1         0
     12456         2         0     12472         2         0     12483         1         0
     12491         1         0     12500         1         0     12503         1         0
     12506         1         0     12509         1         0     12512         1         0
     12515         1         0     12518         1         0     12520         1         0
     12522         1         0     12525         1         0     12528         1         0
     12531         1         0     12534         1         0     12537         1         0
     12540         1         0     12543         1         0     12547         1         0
     12550         1         0     12553         1         0     12556         1         0
     12559         1         0     12562         1         0     12565         1         0
     12568         1         0     12571         1         0     12574         1         0
     12577         1         0     12580         1         0     12583         1         0
     12586         1         0     12590         2         0     12606         2         0
     12617         1         0     12625         1         0     12634         1         0
     12637         1         0     12640         1         0     12643         1         0
     12646         1         0     12649         1         0     12652         1         0
     12654         1         0     12656         1         0     12659         1         0
     12662         1         0     12665         1         0     12668         1         0
     12671         1         0     12674         1         0     12677         1         0
     12681         1         0     12684         1         0     12687         1         0
     12690         1         0     12693         1         0     12696         1         0
     12699         1         0     12702         1         0     12705         1         0
     12708         1         0     12711         1         0     12714         1         0
     12717         1         0     12720         1         0     12724         2         0
     12740         2         0     12751         1         0     12759         1         0
     12768         1         0     12771         1         0     12774         1         0
     12777         1         0     12780         1         0     12783         1         0
     12786         1         0     12788         1         0     12790         1         0
     12793         1         0     12796         1         0     12799         1         0
     12802         1         0     12805         1         0     12808         1         0
     12811         1         0     12815         1         0     12818         1         0
     12821         1         0     12824         1         0     12827         1         0
     12830         1         0     12833         1         0     12836         1         0
     12839         1         0     12842         1         0     12845         1         0
     12848         1         0     12851         1         0     12854         1         0
     12858         2         0     12874         2         0     12885         1         0
     12893         1         0     12902         1         0     12905         1         0
     12908         1         0     12911         1         0     12914         1         0
     12917         1         0     12920         1         0     12922         1         0
     12924         1         0     12927         1         0     12930         1         0
     12933         1         0     12936         1         0     12939         1         0
     12942         1         0     12945         1         0     12949         1         0
     12952         1         0     12955         1         0     12958         1         0
     12961         1         0     12964         1         0     12967         1         0
     12970         1         0     12973         1         0     12976         1         0
     12979         1         0     12982         1         0     12985         1         0
     12988         1         0     12992         2         0     13008         2         0
     13019         1         0     13027         1         0     13036         1         0
     13039         1         0     13042         1         0     13045         1         0
     13048         1         0     13051         1         0     13054         1         0
     13056         1         0     13058         1         0     13061         1         0
     13064         1         0     13067         1         0     13070         1         0
     13073         1         0     13076         1         0     13079         1         0
     13083         1         0     13086         1         0     13089         1         0
     13092         1         0     13095         1         0     13098         1         0
     13101         1         0     13104         1         0     13107         1         0
     13110         1         0     13113         1         0     13116         1         0
     13119         1         0     13122         1         0     13126         2         0
     13142         2         0     13153         1         0     13161         1         0
     13170         1         0     13173         1         0     13176         1         0
     13179         1         0     13182         1         0     13185         1         0
     13188         1         0     13190         1         0     13192         1         0
     13195         1         0     13198         1         0     13201         1         0
     13204         1         0     13207         1         0     13210         1         0
     13213         1         0     13217         1         0     13220         1         0
     13223         1         0     13226         1         0     13229         1         0
     13232         1         0     13235         1         0     13238         1         0
     13241         1         0     13244         1         0     13247         1         0
     13250         1         0     13253         1         0     13256         1         0
     13260         2         0     13276         2         0     13287         1         0
     13295         1         0     13304         1         0     13307         1         0
     13310         1         0     13313         1         0     13316         1         0
     13319         1         0     13322         1         0     13324         1         0
     13326         1         0     13329         1         0     13332         1         0
     13335         1         0     13338         1         0     13341         1         0
     13344         1         0     13347         1         0     13351         1         0
     13354         1         0     13357         1         0     13360         1         0
     13363         1         0     13366         1         0     13369         1         0
     13372         1         0     13375         1         0     13378         1         0
     13381         1         0     13384         1         0     13387         1         0
     13390         1         0     13394         2         0     13410         2         0
     13421         1         0     13429         1         0     13438         1         0
     13441         1         0     13444         1         0     13447         1         0
     13450         1         0     13453         1         0     13456         1         0
     13458         1         0     13460         1         0     13463         1         0
     13466         1         0     13469         1         0     13472         1         0
     13475         1         0     13478         1         0     13481         1         0
     13485         1         0     13488         1         0     13491         1         0
     13494         1         0     13497         1         0     13500         1         0
     13503         1         0     13506         1         0     13509         1         0
     13512         1         0     13515         1         0     13518         1         0
     13521         1         0     13524         1         0     13528         2         0
     13534         2         0     13537         2         0     13548         1         0
     13556         1         0     13565         1         0     13568         1         0
     13571         1         0     13574         1         0     13577         1         0
     13580         1         0     13583         1         0     13585         1         0
     13587         1         0     13590         1         0     13593         1         0
     13596         1         0     13599         1         0     13602         1         0
     13605         1         0     13608         1         0     13612         1         0
     13615         1         0     13618         1         0     13621         1         0
     13624         1         0     13627         1         0     13630         1         0
     13633         1         0     13636         1         0     13639         1         0
     13642         1         0     13645         1         0     13648         1         0
     13651         1         0     13655         2         0     13671         2         0
     13682         1         0     13690         1         0     13699         1         0
     13702         1         0     13705         1         0     13708         1         0
     13711         1         0     13714         1         0     13717         1         0
     13719         1         0     13721         1         0     13724         1         0
     13727         1         0     13730         1         0     13733         1         0
     13736         1         0     13739         1         0     13742         1         0
     13746         1         0     13749         1         0     13752         1         0
     13755         1         0     13758         1         0     13761         1         0
     13764         1         0     13767         1         0     13770         1         0
     13773         1         0     13776         1         0     13779         1         0
     13782         1         0     13785         1         0     13789         2         0
     13795         2         0     13798         2         0     13809         1         0
     13817         1         0     13826         1         0     13829         1         0
     13832         1         0     13835         1         0     13838         1         0
     13841         1         0     13844         1         0     13846         1         0
     13848         1         0     13851         1         0     13854         1         0
     13857         1         0     13860         1         0     13863         1         0
     13866         1         0     13869         1         0     13873         1         0
     13876         1         0     13879         1         0     13882         1         0
     13885         1         0     13888         1         0     13891         1         0
     13894         1         0     13897         1         0     13900         1         0
     13903         1         0     13906         1         0     13909         1         0
     13912         1         0     13916         2         0     13932         2         0
     13943         1         0     13951         1         0     13960         1         0
     13963         1         0     13966         1         0     13969         1         0
     13972         1         0     13975         1         0     13978         1         0
     13980         1         0     13982         1         0     13985         1         0
     13988         1         0     13991         1         0     13994         1         0
     13997         1         0     14000         1         0     14003         1         0
     14007         1         0     14010         1         0     14013         1         0
     14016         1         0     14019         1         0     14022         1         0
     14025         1         0     14028         1         0     14031         1         0
     14034         1         0     14037         1         0     14040         1         0
     14043         1         0     14046         1         0     14050         2         0
     14066         2         0     14077         1         0     14085         1         0
     14094         1         0     14097         1         0     14100         1         0
     14103         1         0     14106         1         0     14109         1         0
     14112         1         0     14114         1         0     14116         1         0
     14119         1         0     14122         1         0     14125         1         0
     14128         1         0     14131         1         0     14134         1         0
     14137         1         0     14141         1         0     14144         1         0
     14147         1         0     14150         1         0     14153         1         0
     14156         1         0     14159         1         0     14162         1         0
     14165         1         0     14168         1         0     14171         1         0
     14174         1         0     14177         1         0     14180         1         0
     14184         2         0     14190         2         0     14193         2         0
     14204         1         0     14212         1         0     14221         1         0
     14224         1         0     14227         1         0     14230         1         0
     14233         1         0     14236         1         0     14239         1         0
     14241         1         0     14243         1         0     14246         1         0
     14249         1         0     14252         1         0     14255         1         0
     14258         1         0     14261         1         0     14264         1         0
     14268         1         0     14271         1         0     14274         1         0
     14277         1         0     14280         1         0     14283         1         0
     14286         1         0     14289         1         0     14292         1         0
     14295         1         0     14298         1         0     14301         1         0
     14304         1         0     14307         1         0     14311         2         0
     14327         2         0     14338         1         0     14346         1         0
     14355         1         0     14358         1         0     14361         1         0
     14364         1         0     14367         1         0     14370         1         0
     14373         1         0     14375         1         0     14377         1         0
     14380         1         0     14383         1         0     14386         1         0
     14389         1         0     14392         1         0     14395         1         0
     14398         1         0     14402         1         0     14405         1         0
     14408         1         0     14411         1         0     14414         1         0
     14417         1         0     14420         1         0     14423         1         0
     14426         1         0     14429         1         0     14432         1         0
     14435         1         0     14438         1         0     14441         1         0
     14445         2         0     14461         2         0     14472         1         0
     14480         1         0     14489         1         0     14492         1         0
     14495         1         0     14498         1         0     14501         1         0
     14504         1         0     14507         1         0     14509         1         0
     14511         1         0     14514         1         0     14517         1         0
     14520         1         0     14523         1         0     14526         1         0
     14529         1         0     14532         1         0     14536         1         0
     14539         1         0     14542         1         0     14545         1         0
     14548         1         0     14551         1         0     14554         1         0
     14557         1         0     14560         1         0     14563         1         0
     14566         1         0     14569         1         0     14572         1         0
     14575         1         0     14579         2         0     14585         2         0
     14588         2         0     14599         1         0     14607         1         0
     14616         1         0     14619         1         0     14622         1         0
     14625         1         0     14628         1         0     14631         1         0
     14634         1         0     14636         1         0     14638         1         0
     14641         1         0     14644         1         0     14647         1         0
     14650         1         0     14653         1         0     14656         1         0
     14659         1         0     14663         1         0     14666         1         0
     14669         1         0     14672         1         0     14675         1         0
     14678         1         0     14681         1         0     14684         1         0
     14687         1         0     14690         1         0     14693         1         0
     14696         1         0     14699         1         0     14702         1         0
     14706         2         0     14722         2         0     14733         1         0
     14741         1         0     14750         1         0     14753         1         0
     14756         1         0     14759         1         0     14762         1         0
     14765         1         0     14768         1         0     14770         1         0
     14772         1         0     14775         1         0     14778         1         0
     14781         1         0     14784         1         0     14787         1         0
     14790         1         0     14793         1         0     14797         1         0
     14800         1         0     14803         1         0     14806         1         0
     14809         1         0     14812         1         0     14815         1         0
     14818         1         0     14821         1         0     14824         1         0
     14827         1         0     14830         1         0     14833         1         0
     14836         1         0     14840         2         0     14856         2         0
     14867         1         0     14875         1         0     14884         1         0
     14887         1         0     14890         1         0     14893         1         0
     14896         1         0     14899         1         0     14902         1         0
     14904         1         0     14906         1         0     14909         1         0
     14912         1         0     14915         1         0     14918         1         0
     14921         1         0     14924         1         0     14927         1         0
     14931         1         0     14934         1         0     14937         1         0
     14940         1         0     14943         1         0     14946         1         0
     14949         1         0     14952         1         0     14955         1         0
     14958         1         0     14961         1         0     14964         1         0
     14967         1         0     14970         1         0     14974         2         0
     14980         2         0     14983         2         0     14994         1         0
     15002         1         0     15011         1         0     15014         1         0
     15017         1         0     15020         1         0     15023         1         0
     15026         1         0     15029         1         0     15031         1         0
     15033         1         0     15036         1         0     15039         1         0
     15042         1         0     15045         1         0     15048         1         0
     15051         1         0     15054         1         0     15058         1         0
     15061         1         0     15064         1         0     15067         1         0
     15070         1         0     15073         1         0     15076         1         0
     15079         1         0     15082         1         0     15085         1         0
     15088         1         0     15091         1         0     15094         1         0
     15097         1         0     15101         2         0     15117         2         0
     15128         1         0     15136         1         0     15145         1         0
     15148         1         0     15151         1         0     15154         1         0
     15157         1         0     15160         1         0     15163         1         0
     15165         1         0     15167         1         0     15170         1         0
     15173         1         0     15176         1         0     15179         1         0
     15182         1         0     15185         1         0     15188         1         0
     15192         1         0     15195         1         0     15198         1         0
     15201         1         0     15204         1         0     15207         1         0
     15210         1         0     15213         1         0     15216         1         0
     15219         1         0     15222         1         0     15225         1         0
     15228         1         0     15231         1         0     15235         2         0
     15251         2         0     15262         1         0     15270         1         0
     15279         1         0     15282         1         0     15285         1         0
     15288         1         0     15291         1         0     15294         1         0
     15297         1         0     15299         1         0     15301         1         0
     15304         1         0     15307         1         0     15310         1         0
     15313         1         0     15316         1         0     15319         1         0
     15322         1         0     15326         1         0     15329         1         0
     15332         1         0     15335         1         0     15338         1         0
     15341         1         0     15344         1         0     15347         1         0
     15350         1         0     15353         1         0     15356         1         0
     15359         1         0     15362         1         0     15365         1         0
     15369         2         0     15385         2         0     15396         1         0
     15404         1         0     15413         1         0     15416         1         0
     15419         1         0     15422         1         0     15425         1         0
     15428         1         0     15431         1         0     15433         1         0
     15435         1         0     15438         1         0     15441         1         0
     15444         1         0     15447         1         0     15450         1         0
     15453         1         0     15456         1         0     15460         1         0
     15463         1         0     15466         1         0     15469         1         0
     15472         1         0     15475         1         0     15478         1         0
     15481         1         0     15484         1         0     15487         1         0
     15490         1         0     15493         1         0     15496         1         0
     15499         1         0     15503         2         0     15509         2         0
     15512         2         0     15523         1         0     15531         1         0
     15540         1         0     15543         1         0     15546         1         0
     15549         1         0     15552         1         0     15555         1         0
     15558         1         0     15560         1         0     15562         1         0
     15565         1         0     15568         1         0     15571         1         0
     15574         1         0     15577         1         0     15580         1         0
     15583         1         0     15587         1         0     15590         1         0
     15593         1         0     15596         1         0     15599         1         0
     15602         1         0     15605         1         0     15608         1         0
     15611         1         0     15614         1         0     15617         1         0
     15620         1         0     15623         1         0     15626         1         0
     15630         2         0     15646         2         0     15657         1         0
     15665         1         0     15674         1         0     15677         1         0
     15680         1         0     15683         1         0     15686         1         0
     15689         1         0     15692         1         0     15694         1         0
     15696         1         0     15699         1         0     15702         1         0
     15705         1         0     15708         1         0     15711         1         0
     15714         1         0     15717         1         0     15721         1         0
     15724         1         0     15727         1         0     15730         1         0
     15733         1         0     15736         1         0     15739         1         0
     15742         1         0     15745         1         0     15748         1         0
     15751         1         0     15754         1         0     15757         1         0
     15760         1         0     15764         2         0     15780         2         0
     15791         1         0     15799         1         0     15808         1         0
     15811         1         0     15814         1         0     15817         1         0
     15820         1         0     15823         1         0     15826         1         0
     15828         1         0     15830         1         0     15833         1         0
     15836         1         0     15839         1         0     15842         1         0
     15845         1         0     15848         1         0     15851         1         0
     15855         1         0     15858         1         0     15861         1         0
     15864         1         0     15867         1         0     15870         1         0
     15873         1         0     15876         1         0     15879         1         0
     15882         1         0     15885         1         0     15888         1         0
     15891         1         0     15894         1         0     15898         2         0
     15914         2         0     15925         1         0     15933         1         0
     15942         1         0     15945         1         0     15948         1         0
     15951         1         0     15954         1         0     15957         1         0
     15960         1         0     15962         1         0     15964         1         0
     15967         1         0     15970         1         0     15973         1         0
     15976         1         0     15979         1         0     15982         1         0
     15985         1         0     15989         1         0     15992         1         0
     15995         1         0     15998         1         0     16001         1         0
     16004         1         0     16007         1         0     16010         1         0
     16013         1         0     16016         1         0     16019         1         0
     16022         1         0     16025         1         0     16028         1         0
     16032         2         0     16048         2         0     16059         1         0
     16067         1         0     16076         1         0     16079         1         0
     16082         1         0     16085         1         0     16088         1         0
     16091         1         0     16094         1         0     16096         1         0
     16098         1         0     16101         1         0     16104         1         0
     16107         1         0     16110         1         0     16113         1         0
     16116         1         0     16119         1         0     16123         1         0
     16126         1         0     16129         1         0     16132         1         0
     16135         1         0     16138         1         0     16141         1         0
     16144         1         0     16147         1         0     16150         1         0
     16153         1         0     16156         1         0     16159         1         0
     16162         1         0     16166         2         0     16182         2         0
     16193         1         0     16201         1         0     16210         1         0
     16213         1         0     16216         1         0     16219         1         0
     16222         1         0     16225         1         0     16228         1         0
     16230         1         0     16232         1         0     16235         1         0
     16238         1         0     16241         1         0     16244         1         0
     16247         1         0     16250         1         0     16253         1         0
     16257         1         0     16260         1         0     16263         1         0
     16266         1         0     16269         1         0     16272         1         0
     16275         1         0     16278         1         0     16281         1         0
     16284         1         0     16287         1         0     16290         1         0
     16293         1         0     16296         1         0     16300         2         0
     16316         2         0     16327         1         0     16335         1         0
     16344         1         0     16347         1         0     16350         1         0
     16353         1         0     16356         1         0     16359         1         0
     16362         1         0     16364         1         0     16366         1         0
     16369         1         0     16372         1         0     16375         1         0
     16378         1         0     16381         1         0     16384         1         0
     16387         1         0     16391         1         0     16394         1         0
     16397         1         0     16400         1         0     16403         1         0
     16406         1         0     16409         1         0     16412         1         0
     16415         1         0     16418         1         0     16421         1         0
     16424         1         0     16427         1         0     16430         1         0
     16434         2         0     16450         2         0     16461         1         0
     16469         1         0     16478         1         0     16481         1         0
     16484         1         0     16487         1         0     16490         1         0
     16493         1         0     16496         1         0     16498         1         0
     16500         1         0     16503         1         0     16506         1         0
     16509         1         0     16512         1         0     16515         1         0
     16518         1         0     16521         1         0     16525         1         0
     16528         1         0     16531         1         0     16534         1         0
     16537         1         0     16540         1         0     16543         1         0
     16546         1         0     16549         1         0     16552         1         0
     16555         1         0     16558         1         0     16561         1         0
     16564         1         0     16568         2         0     16584         2         0
     16595         1         0     16603         1         0     16612         1         0
     16615         1         0     16618         1         0     16621         1         0
     16624         1         0     16627         1         0     16630         1         0
     16632         1         0     16634         1         0     16637         1         0
     16640         1         0     16643         1         0     16646         1         0
     16649         1         0     16652         1         0     16655         1         0
     16659         1         0     16662         1         0     16665         1         0
     16668         1         0     16671         1         0     16674         1         0
     16677         1         0     16680         1         0     16683         1         0
     16686         1         0     16689         1         0     16692         1         0
     16695         1         0     16698         1         0     16702         2         0
     16718         2         0     16729         1         0     16737         1         0
     16746         1         0     16749         1         0     16752         1         0
     16755         1         0     16758         1         0     16761         1         0
     16764         1         0     16766         1         0     16768         1         0
     16771         1         0     16774         1         0     16777         1         0
     16780         1         0     16783         1         0     16786         1         0
     16789         1         0     16793         1         0     16796         1         0
     16799         1         0     16802         1         0     16805         1         0
     16808         1         0     16811         1         0     16814         1         0
     16817         1         0     16820         1         0     16823         1         0
     16826         1         0     16829         1         0     16832         1         0
     16836         2         0     16852         2         0     16863         1         0
     16871         1         0     16880         1         0     16883         1         0
     16886         1         0     16889         1         0     16892         1         0
     16895         1         0     16898         1         0     16900         1         0
     16902         1         0     16905         1         0     16908         1         0
     16911         1         0     16914         1         0     16917         1         0
     16920         1         0     16923         1         0     16927         1         0
     16930         1         0     16933         1         0     16936         1         0
     16939         1         0     16942         1         0     16945         1         0
     16948         1         0     16951         1         0     16954         1         0
     16957         1         0     16960         1         0     16963         1         0
     16966         1         0     16970         2         0     16986         2         0
     16997         1         0     17005         1         0     17014         1         0
     17017         1         0     17020         1         0     17023         1         0
     17026         1         0     17029         1         0     17032         1         0
     17034         1         0     17036         1         0     17039         1         0
     17042         1         0     17045         1         0     17048         1         0
     17051         1         0     17054         1         0     17057         1         0
     17061         1         0     17064         1         0     17067         1         0
     17070         1         0     17073         1         0     17076         1         0
     17079         1         0     17082         1         0     17085         1         0
     17088         1         0     17091         1         0     17094         1         0
     17097         1         0     17100         1         0     17104         2         0
     17120         2         0     17131         1         0     17139         1         0
     17148         1         0     17151         1         0     17154         1         0
     17157         1         0     17160         1         0     17163         1         0
     17166         1         0     17168         1         0     17170         1         0
     17173         1         0     17176         1         0     17179         1         0
     17182         1         0     17185         1         0     17188         1         0
     17191         1         0     17195         1         0     17198         1         0
     17201         1         0     17204         1         0     17207         1         0
     17210         1         0     17213         1         0     17216         1         0
     17219         1         0     17222         1         0     17225         1         0
     17228         1         0     17231         1         0     17234         1         0

         0         0 !NUMLP NUMLPH

         0 !NCRTERM: cross-terms

