* GENERATED BY CHARMM-GUI (HTTP://WWW.CHARMM-GUI.ORG) V3.7 ON AUG, 30. 2026. JOB
* GENERATES ION CONFORMATION USING MONTE-CARLO SIMULATION
*  DATE:     8/30/26     14:17:50      CREATED BY USER: charmm-gui
*
        53  EXT
         1         1  POT       POT            -5.1653142800      -32.2589233000       38.4833971000  IONS      1               1.0000000000
         2         2  POT       POT            -5.0164894469      -25.3159518183       38.6412077349  IONS      2               1.0000000000
         3         3  POT       POT           -14.1626513000        7.8693626000      -32.2609870000  IONS      3               1.0000000000
         4         4  POT       POT           -21.8894647000       -4.5926392500       34.1082034000  IONS      4               1.0000000000
         5         5  POT       POT            32.4971500000      -11.1748708000       26.3512355000  IONS      5               1.0000000000
         6         6  POT       POT            16.7835643000      -19.8016543000      -28.5512599000  IONS      6               1.0000000000
         7         7  POT       POT            -0.1230950920       33.0326051000       26.6802922000  IONS      7               1.0000000000
         8         8  POT       POT            23.5072466967      -29.6631767889       24.7330630277  IONS      8               1.0000000000
         9         9  POT       POT             1.5833914300       18.1561424000      -31.1943801000  IONS      9               1.0000000000
        10        10  POT       POT            -5.8626924100      -24.9271631000      -37.3079358000  IONS      10              1.0000000000
        11        11  POT       POT            -4.4338981000      -21.9447798000      -29.3954011000  IONS      11              1.0000000000
        12        12  POT       POT            17.0488268000       14.8639959000      -34.4615620000  IONS      12              1.0000000000
        13        13  POT       POT            -1.2428210278      -11.3131414867       23.7514469268  IONS      13              1.0000000000
        14        14  POT       POT           -19.5042068789       26.0865063517       38.5616409336  IONS      14              1.0000000000
        15        15  POT       POT           -30.8476547000       -1.4497330000       40.0353258000  IONS      15              1.0000000000
        16        16  POT       POT           -29.6061920859       -3.4811898071      -33.6663776028  IONS      16              1.0000000000
        17        17  POT       POT            13.2228865830       -6.0129244302       39.7096592979  IONS      17              1.0000000000
        18        18  POT       POT            10.0439021000       -6.7024123000      -36.1874958000  IONS      18              1.0000000000
        19        19  POT       POT            30.7049113000      -24.8443064000      -30.5125504000  IONS      19              1.0000000000
        20        20  POT       POT           -26.1951486687      -14.8055756160       34.0092133660  IONS      20              1.0000000000
        21        21  POT       POT           -16.6878316000       22.5889569000      -37.8802044000  IONS      21              1.0000000000
        22        22  POT       POT            32.8238461000       17.2912399000       19.5125546000  IONS      22              1.0000000000
        23        23  POT       POT            11.2721678000      -13.6481985000       26.1133784000  IONS      23              1.0000000000
        24        24  POT       POT            -3.5849609467        8.5136417515      -29.0291916065  IONS      24              1.0000000000
        25        25  POT       POT           -28.6078485000        5.0471089800      -40.1009129000  IONS      25              1.0000000000
        26        26  POT       POT            -5.1340871700       -0.0622128685       27.4791101000  IONS      26              1.0000000000
        27        27  POT       POT            21.7902878000        8.7760503500       28.9473472000  IONS      27              1.0000000000
        28        28  POT       POT            25.1367605000       -7.8276110100      -23.0674214000  IONS      28              1.0000000000
        29        29  POT       POT            32.4800670356       -7.2320007012      -21.5450050912  IONS      29              1.0000000000
        30        30  POT       POT           -31.6121522000       -1.8712797600       25.6294347000  IONS      30              1.0000000000
        31        31  POT       POT            20.2185026000       30.4472615000       40.3779284000  IONS      31              1.0000000000
        32        32  POT       POT           -26.3780071000        0.3175592240      -42.0011913000  IONS      32              1.0000000000
        33        33  POT       POT             1.7889624100       20.5129631000      -39.0029622000  IONS      33              1.0000000000
        34        34  POT       POT            12.5707808000       13.3440151000       27.1642303000  IONS      34              1.0000000000
        35        35  POT       POT            -6.4537386700       25.5825430000      -39.4433315000  IONS      35              1.0000000000
        36        36  POT       POT            29.5551979000        9.1832011800      -23.9072535000  IONS      36              1.0000000000
        37        37  POT       POT            18.3767804148       23.1862297229      -24.0263237124  IONS      37              1.0000000000
        38        38  POT       POT           -18.8814722000      -30.2074629000      -36.0929389000  IONS      38              1.0000000000
        39        39  POT       POT            17.4261406000      -32.4323972000      -19.4185491000  IONS      39              1.0000000000
        40        40  CLA       CLA            31.8389271800      -29.5177571975       24.9256062223  IONS      40             -1.0000000000
        41        41  CLA       CLA           -17.0756488960        9.8983665055      -29.4189120927  IONS      41             -1.0000000000
        42        42  CLA       CLA            -1.3700166700        2.5666277100       38.1487319000  IONS      42             -1.0000000000
        43        43  CLA       CLA            18.4581020000       -0.8198926400       23.4991016000  IONS      43             -1.0000000000
        44        44  CLA       CLA             3.1027821600        5.2117694100       38.6027933000  IONS      44             -1.0000000000
        45        45  CLA       CLA            21.1290448000       17.2211740000       31.4455862000  IONS      45             -1.0000000000
        46        46  CLA       CLA            -4.8079678100      -26.2163857000      -25.2486226000  IONS      46             -1.0000000000
        47        47  CLA       CLA           -28.9749871000      -29.0628839000       38.4820839000  IONS      47             -1.0000000000
        48        48  CLA       CLA           -29.9452740000       31.0374934000      -33.9281548000  IONS      48             -1.0000000000
        49        49  CLA       CLA             2.4197330581       24.3009923902       29.0483838006  IONS      49             -1.0000000000
        50        50  CLA       CLA           -22.0736834923        2.8291269986       28.6329036951  IONS      50             -1.0000000000
        51        51  CLA       CLA            17.6965571000       18.1367328000       29.2147695000  IONS      51             -1.0000000000
        52        52  CLA       CLA             9.2168350300       -8.5939074100       32.2026703000  IONS      52             -1.0000000000
        53        53  CLA       CLA           -19.6358127000      -12.1357747000      -22.4283687000  IONS      53             -1.0000000000
