* EQUILIBRATED WATER
*  DATE:     8/30/26     14:17:31      CREATED BY USER: charmm-gui
*
      9468  EXT
         1         1  TIP3      OH2           -21.0990486291      -23.3321294476       -4.3072348426  W2        1               0.0000000000
         2         1  TIP3      H1            -21.0099386291      -22.3883094476       -4.4395248426  W2        1               0.0000000000
         3         1  TIP3      H2            -21.7372886291      -23.6074894476       -4.9652948426  W2        1               0.0000000000
         4         2  TIP3      OH2           -22.1659186291      -24.0770594476       -0.8884148426  W2        2               0.0000000000
         5         2  TIP3      H1            -22.2041686291      -24.7234294476       -0.1834548426  W2        2               0.0000000000
         6         2  TIP3      H2            -22.4882686291      -24.5436194476       -1.6595448426  W2        2               0.0000000000
         7         3  TIP3      OH2           -29.7974186291      -24.4628494476        0.7045751574  W2        3               0.0000000000
         8         3  TIP3      H1            -29.7562086291      -25.0885194476        1.4278151574  W2        3               0.0000000000
         9         3  TIP3      H2            -29.0946486291      -23.8389894476        0.8866151574  W2        3               0.0000000000
        10         4  TIP3      OH2           -18.4598986291      -21.1380194476       -2.5869048426  W2        4               0.0000000000
        11         4  TIP3      H1            -18.9006286291      -21.8584194476       -2.1363448426  W2        4               0.0000000000
        12         4  TIP3      H2            -18.4729286291      -20.4172994476       -1.9571348426  W2        4               0.0000000000
        13         5  TIP3      OH2           -28.8741086291      -20.0129594476       -0.7605148426  W2        5               0.0000000000
        14         5  TIP3      H1            -29.2435886291      -20.8149094476       -1.1300848426  W2        5               0.0000000000
        15         5  TIP3      H2            -27.9329986291      -20.1814694476       -0.7141748426  W2        5               0.0000000000
        16         6  TIP3      OH2           -32.2640586291      -26.3526994476       -5.3676348426  W2        6               0.0000000000
        17         6  TIP3      H1            -32.7117186291      -25.5068294476       -5.3859848426  W2        6               0.0000000000
        18         6  TIP3      H2            -32.8249386291      -26.9322794476       -5.8831248426  W2        6               0.0000000000
        19         7  TIP3      OH2           -31.5534486291      -24.1907394476       -3.2418348426  W2        7               0.0000000000
        20         7  TIP3      H1            -31.3400986291      -24.9605794476       -2.7145348426  W2        7               0.0000000000
        21         7  TIP3      H2            -30.8156886291      -24.1010694476       -3.8450748426  W2        7               0.0000000000
        22         8  TIP3      OH2           -21.3483486291      -16.0338494476       -2.3748648426  W2        8               0.0000000000
        23         8  TIP3      H1            -20.7287086291      -16.7103794476       -2.6479448426  W2        8               0.0000000000
        24         8  TIP3      H2            -21.5566086291      -16.2517694476       -1.4663748426  W2        8               0.0000000000
        25         9  TIP3      OH2           -23.7764786291      -21.6449194476       -0.4823148426  W2        9               0.0000000000
        26         9  TIP3      H1            -23.4726886291      -22.3307794476       -1.0769048426  W2        9               0.0000000000
        27         9  TIP3      H2            -23.0550786291      -21.5260494476        0.1354851574  W2        9               0.0000000000
        28        10  TIP3      OH2           -15.1134986291      -30.0433894476        0.3783051574  W2        10              0.0000000000
        29        10  TIP3      H1            -15.0642786291      -29.4332694476        1.1142151574  W2        10              0.0000000000
        30        10  TIP3      H2            -14.6879886291      -29.5822994476       -0.3445848426  W2        10              0.0000000000
        31        11  TIP3      OH2           -20.6357786291      -27.2506794476       -0.1548348426  W2        11              0.0000000000
        32        11  TIP3      H1            -20.4931886291      -28.1969794476       -0.1346748426  W2        11              0.0000000000
        33        11  TIP3      H2            -20.7418786291      -27.0436994476       -1.0833448426  W2        11              0.0000000000
        34        12  TIP3      OH2           -27.4809486291      -29.1490394476       -2.8823548426  W2        12              0.0000000000
        35        12  TIP3      H1            -27.4378386291      -28.2891894476       -3.3007248426  W2        12              0.0000000000
        36        12  TIP3      H2            -27.9385386291      -29.7015694476       -3.5160348426  W2        12              0.0000000000
        37        13  TIP3      OH2           -19.7586786291      -29.0184794476       -4.4815248426  W2        13              0.0000000000
        38        13  TIP3      H1            -19.1122486291      -29.3471594476       -3.8567648426  W2        13              0.0000000000
        39        13  TIP3      H2            -19.2487386291      -28.5005794476       -5.1043848426  W2        13              0.0000000000
        40        14  TIP3      OH2           -30.8607986291      -26.7524594476       -2.1202148426  W2        14              0.0000000000
        41        14  TIP3      H1            -30.2071386291      -27.3022894476       -1.6882048426  W2        14              0.0000000000
        42        14  TIP3      H2            -30.8368686291      -27.0265594476       -3.0370148426  W2        14              0.0000000000
        43        15  TIP3      OH2           -25.7043486291      -25.2023294476       -2.9050648426  W2        15              0.0000000000
        44        15  TIP3      H1            -25.0882486291      -25.7287894476       -2.3956648426  W2        15              0.0000000000
        45        15  TIP3      H2            -26.2904686291      -25.8424594476       -3.3087048426  W2        15              0.0000000000
        46        16  TIP3      OH2           -14.7220386291      -28.5654694476        2.6142851574  W2        16              0.0000000000
        47        16  TIP3      H1            -15.4105786291      -27.9073994476        2.5189451574  W2        16              0.0000000000
        48        16  TIP3      H2            -14.7065786291      -28.7626794476        3.5508251574  W2        16              0.0000000000
        49        17  TIP3      OH2           -28.6707586291      -30.2311994476        1.1917251574  W2        17              0.0000000000
        50        17  TIP3      H1            -28.8895886291      -29.7011394476        0.4253251574  W2        17              0.0000000000
        51        17  TIP3      H2            -29.3386686291      -30.0046494476        1.8388651574  W2        17              0.0000000000
        52        18  TIP3      OH2           -21.3017786291      -20.7310894476       -5.2643648426  W2        18              0.0000000000
        53        18  TIP3      H1            -21.5972686291      -21.0538594476       -6.1156748426  W2        18              0.0000000000
        54        18  TIP3      H2            -21.6259986291      -19.8314194476       -5.2231048426  W2        18              0.0000000000
        55        19  TIP3      OH2           -26.1016186291      -22.5556294476        1.4790951574  W2        19              0.0000000000
        56        19  TIP3      H1            -26.8417086291      -21.9574794476        1.5826151574  W2        19              0.0000000000
        57        19  TIP3      H2            -25.3876686291      -22.0016694476        1.1634551574  W2        19              0.0000000000
        58        20  TIP3      OH2           -17.9948386291      -29.7275494476       -2.5009348426  W2        20              0.0000000000
        59        20  TIP3      H1            -18.2100386291      -30.4932094476       -1.9683348426  W2        20              0.0000000000
        60        20  TIP3      H2            -17.3390986291      -29.2550894476       -1.9880848426  W2        20              0.0000000000
        61        21  TIP3      OH2           -29.0770286291      -28.3390194476       -0.8560548426  W2        21              0.0000000000
        62        21  TIP3      H1            -28.4633986291      -27.7062594476       -0.4828148426  W2        21              0.0000000000
        63        21  TIP3      H2            -28.5649586291      -28.8115194476       -1.5123648426  W2        21              0.0000000000
        64        22  TIP3      OH2           -27.6941886291      -20.5913294476        2.2662451574  W2        22              0.0000000000
        65        22  TIP3      H1            -27.6994286291      -19.7119794476        1.8881751574  W2        22              0.0000000000
        66        22  TIP3      H2            -28.5477786291      -20.6749194476        2.6912351574  W2        22              0.0000000000
        67        23  TIP3      OH2           -31.5730986291      -20.9205394476       -6.9518248426  W2        23              0.0000000000
        68        23  TIP3      H1            -31.8450086291      -20.6914394476       -7.8405348426  W2        23              0.0000000000
        69        23  TIP3      H2            -31.5275286291      -20.0826594476       -6.4912948426  W2        23              0.0000000000
        70        24  TIP3      OH2           -17.9481286291      -19.2989494476       -0.2389748426  W2        24              0.0000000000
        71        24  TIP3      H1            -18.8897586291      -19.2405594476       -0.0772848426  W2        24              0.0000000000
        72        24  TIP3      H2            -17.6715186291      -18.3928994476       -0.3760048426  W2        24              0.0000000000
        73        25  TIP3      OH2           -17.6474286291      -31.0124194476        1.1784151574  W2        25              0.0000000000
        74        25  TIP3      H1            -18.3835086291      -30.4017094476        1.1405451574  W2        25              0.0000000000
        75        25  TIP3      H2            -16.9640286291      -30.5975194476        0.6520551574  W2        25              0.0000000000
        76        26  TIP3      OH2           -24.6442886291      -32.9256894476       -1.3557848426  W2        26              0.0000000000
        77        26  TIP3      H1            -24.7618686291      -33.8740894476       -1.4099548426  W2        26              0.0000000000
        78        26  TIP3      H2            -25.4992786291      -32.5930794476       -1.0826748426  W2        26              0.0000000000
        79        27  TIP3      OH2           -19.6960086291      -17.5175994476       -3.6138148426  W2        27              0.0000000000
        80        27  TIP3      H1            -19.2707786291      -18.2248094476       -4.0988548426  W2        27              0.0000000000
        81        27  TIP3      H2            -19.3790086291      -16.7163294476       -4.0305948426  W2        27              0.0000000000
        82        28  TIP3      OH2           -18.5363586291      -19.6167494476       -5.1051548426  W2        28              0.0000000000
        83        28  TIP3      H1            -18.7938786291      -20.3067394476       -5.7165648426  W2        28              0.0000000000
        84        28  TIP3      H2            -18.4652786291      -20.0596294476       -4.2595648426  W2        28              0.0000000000
        85        29  TIP3      OH2           -16.8503386291      -21.0500794476        3.3721951574  W2        29              0.0000000000
        86        29  TIP3      H1            -16.7107086291      -21.6418294476        2.6328951574  W2        29              0.0000000000
        87        29  TIP3      H2            -16.6830586291      -20.1774894476        3.0160751574  W2        29              0.0000000000
        88        30  TIP3      OH2           -22.3777986291      -24.0881294476       -6.8552048426  W2        30              0.0000000000
        89        30  TIP3      H1            -23.0892486291      -23.5531594476       -7.2071548426  W2        30              0.0000000000
        90        30  TIP3      H2            -21.6868386291      -24.0329194476       -7.5153148426  W2        30              0.0000000000
        91        31  TIP3      OH2           -22.3238786291      -25.6306994476       -9.8167048426  W2        31              0.0000000000
        92        31  TIP3      H1            -21.6228886291      -25.6080094476       -9.1653048426  W2        31              0.0000000000
        93        31  TIP3      H2            -22.0215886291      -26.2587294476      -10.4727748426  W2        31              0.0000000000
        94        32  TIP3      OH2           -15.0084086291      -24.7102794476        1.4382351574  W2        32              0.0000000000
        95        32  TIP3      H1            -15.6609986291      -24.0157194476        1.5273251574  W2        32              0.0000000000
        96        32  TIP3      H2            -14.5433786291      -24.5001894476        0.6283951574  W2        32              0.0000000000
        97        33  TIP3      OH2           -18.9720286291      -23.8787994476       -5.9036148426  W2        33              0.0000000000
        98        33  TIP3      H1            -19.7039286291      -23.6504294476       -5.3305548426  W2        33              0.0000000000
        99        33  TIP3      H2            -18.5248086291      -24.5925294476       -5.4488648426  W2        33              0.0000000000
       100        34  TIP3      OH2           -19.0746786291      -25.7045394476        3.1640851574  W2        34              0.0000000000
       101        34  TIP3      H1            -18.9947686291      -24.9410994476        3.7359351574  W2        34              0.0000000000
       102        34  TIP3      H2            -19.6759086291      -25.4252994476        2.4735951574  W2        34              0.0000000000
       103        35  TIP3      OH2           -27.3266586291      -23.2481794476       -4.0211148426  W2        35              0.0000000000
       104        35  TIP3      H1            -27.6571386291      -23.6188394476       -4.8394148426  W2        35              0.0000000000
       105        35  TIP3      H2            -26.7382486291      -23.9187794476       -3.6742848426  W2        35              0.0000000000
       106        36  TIP3      OH2           -25.9599086291      -19.8201194476       -1.3398948426  W2        36              0.0000000000
       107        36  TIP3      H1            -26.0547786291      -20.3988094476       -2.0964348426  W2        36              0.0000000000
       108        36  TIP3      H2            -25.2305486291      -20.1915494476       -0.8436148426  W2        36              0.0000000000
       109        37  TIP3      OH2           -26.9601086291      -24.4796194476       -0.3876148426  W2        37              0.0000000000
       110        37  TIP3      H1            -26.3948586291      -24.3581994476       -1.1504948426  W2        37              0.0000000000
       111        37  TIP3      H2            -26.6412186291      -23.8421194476        0.2512351574  W2        37              0.0000000000
       112        38  TIP3      OH2           -20.6508886291      -18.9764294476        0.3464351574  W2        38              0.0000000000
       113        38  TIP3      H1            -20.8912286291      -18.3141194476        0.9943551574  W2        38              0.0000000000
       114        38  TIP3      H2            -20.8490686291      -19.8109094476        0.7713951574  W2        38              0.0000000000
       115        39  TIP3      OH2           -26.0800386291      -20.0803494476        4.3295751574  W2        39              0.0000000000
       116        39  TIP3      H1            -26.3912886291      -19.2980294476        4.7848951574  W2        39              0.0000000000
       117        39  TIP3      H2            -26.7300186291      -20.2334394476        3.6437751574  W2        39              0.0000000000
       118        40  TIP3      OH2           -20.1010786291      -24.7165094476       -8.2184948426  W2        40              0.0000000000
       119        40  TIP3      H1            -19.5215286291      -24.5664794476       -7.4716048426  W2        40              0.0000000000
       120        40  TIP3      H2            -19.6870786291      -24.2457694476       -8.9418548426  W2        40              0.0000000000
       121        41  TIP3      OH2           -29.1600486291      -23.8822394476        3.5581451574  W2        41              0.0000000000
       122        41  TIP3      H1            -29.0897286291      -23.2315594476        4.2566451574  W2        41              0.0000000000
       123        41  TIP3      H2            -30.0508286291      -23.7794894476        3.2232351574  W2        41              0.0000000000
       124        42  TIP3      OH2           -22.3745886291      -17.9796594476       -4.7831848426  W2        42              0.0000000000
       125        42  TIP3      H1            -21.9008286291      -17.6840294476       -4.0057648426  W2        42              0.0000000000
       126        42  TIP3      H2            -22.9376586291      -17.2414994476       -5.0162248426  W2        42              0.0000000000
       127        43  TIP3      OH2           -27.8404486291      -18.0088494476        5.0929551574  W2        43              0.0000000000
       128        43  TIP3      H1            -27.8329186291      -18.1448794476        4.1455051574  W2        43              0.0000000000
       129        43  TIP3      H2            -28.7564086291      -18.1260394476        5.3449551574  W2        43              0.0000000000
       130        44  TIP3      OH2           -16.4022386291      -32.9664694476       -8.4055248426  W2        44              0.0000000000
       131        44  TIP3      H1            -17.3021686291      -32.8275694476       -8.1104648426  W2        44              0.0000000000
       132        44  TIP3      H2            -16.1503986291      -32.1350094476       -8.8073548426  W2        44              0.0000000000
       133        45  TIP3      OH2           -28.3363886291      -24.1787494476       -6.4318348426  W2        45              0.0000000000
       134        45  TIP3      H1            -28.6282586291      -23.4105794476       -6.9227048426  W2        45              0.0000000000
       135        45  TIP3      H2            -29.0108686291      -24.8381294476       -6.5946948426  W2        45              0.0000000000
       136        46  TIP3      OH2           -15.2130986291      -18.6002294476      -10.0291348426  W2        46              0.0000000000
       137        46  TIP3      H1            -15.1397486291      -17.6612094476       -9.8586048426  W2        46              0.0000000000
       138        46  TIP3      H2            -14.3075886291      -18.9053694476      -10.0854048426  W2        46              0.0000000000
       139        47  TIP3      OH2           -32.2433786291      -21.8158294476        2.3831451574  W2        47              0.0000000000
       140        47  TIP3      H1            -32.7445386291      -21.8438894476        1.5681151574  W2        47              0.0000000000
       141        47  TIP3      H2            -32.2380086291      -22.7215094476        2.6928751574  W2        47              0.0000000000
       142        48  TIP3      OH2           -32.4931086291      -19.0354494476       -0.7328348426  W2        48              0.0000000000
       143        48  TIP3      H1            -31.5470486291      -19.1797494476       -0.7518848426  W2        48              0.0000000000
       144        48  TIP3      H2            -32.6054786291      -18.2511694476       -0.1957148426  W2        48              0.0000000000
       145        49  TIP3      OH2           -14.2952586291      -18.3694794476        4.9495351574  W2        49              0.0000000000
       146        49  TIP3      H1            -14.3445786291      -19.3246694476        4.9122951574  W2        49              0.0000000000
       147        49  TIP3      H2            -15.1220286291      -18.1019494476        5.3509151574  W2        49              0.0000000000
       148        50  TIP3      OH2           -23.3168586291      -18.7955594476        3.8256751574  W2        50              0.0000000000
       149        50  TIP3      H1            -23.2293986291      -17.9690994476        4.3005851574  W2        50              0.0000000000
       150        50  TIP3      H2            -24.1803486291      -19.1251794476        4.0746051574  W2        50              0.0000000000
       151        51  TIP3      OH2           -22.9022786291      -15.0231894476       -6.3682648426  W2        51              0.0000000000
       152        51  TIP3      H1            -22.9776786291      -15.1444694476       -7.3147448426  W2        51              0.0000000000
       153        51  TIP3      H2            -22.8694086291      -14.0739194476       -6.2498048426  W2        51              0.0000000000
       154        52  TIP3      OH2           -29.2488986291      -16.2344894476       -4.5873648426  W2        52              0.0000000000
       155        52  TIP3      H1            -29.0968586291      -16.5824494476       -3.7087148426  W2        52              0.0000000000
       156        52  TIP3      H2            -30.0998586291      -16.5907594476       -4.8426448426  W2        52              0.0000000000
       157        53  TIP3      OH2           -19.8006786291      -15.8691694476       -9.3660248426  W2        53              0.0000000000
       158        53  TIP3      H1            -19.4258386291      -16.6135594476       -9.8367648426  W2        53              0.0000000000
       159        53  TIP3      H2            -19.7963086291      -16.1391094476       -8.4476948426  W2        53              0.0000000000
       160        54  TIP3      OH2           -20.1318686291      -15.9434594476       -6.6168048426  W2        54              0.0000000000
       161        54  TIP3      H1            -21.0668886291      -15.8432694476       -6.4381048426  W2        54              0.0000000000
       162        54  TIP3      H2            -19.8516786291      -16.6528594476       -6.0384848426  W2        54              0.0000000000
       163        55  TIP3      OH2           -17.1432786291      -26.8762294476        5.4297551574  W2        55              0.0000000000
       164        55  TIP3      H1            -17.5505986291      -26.3956694476        4.7090851574  W2        55              0.0000000000
       165        55  TIP3      H2            -17.1027086291      -27.7816294476        5.1218351574  W2        55              0.0000000000
       166        56  TIP3      OH2           -29.9943286291      -20.4922894476        3.4264251574  W2        56              0.0000000000
       167        56  TIP3      H1            -29.7781986291      -20.8537294476        4.2860051574  W2        56              0.0000000000
       168        56  TIP3      H2            -30.8498586291      -20.8669094476        3.2167751574  W2        56              0.0000000000
       169        57  TIP3      OH2           -27.3755286291      -32.0222394476       -0.5781548426  W2        57              0.0000000000
       170        57  TIP3      H1            -28.2371586291      -32.1094194476       -0.9858648426  W2        57              0.0000000000
       171        57  TIP3      H2            -27.3979586291      -31.1662294476       -0.1503948426  W2        57              0.0000000000
       172        58  TIP3      OH2           -22.7127486291      -32.3001994476        2.7965451574  W2        58              0.0000000000
       173        58  TIP3      H1            -22.2924386291      -32.7154894476        3.5496051574  W2        58              0.0000000000
       174        58  TIP3      H2            -23.6457886291      -32.4788694476        2.9137451574  W2        58              0.0000000000
       175        59  TIP3      OH2           -19.3862586291      -28.5446794476        3.6499951574  W2        59              0.0000000000
       176        59  TIP3      H1            -19.9003086291      -28.6704594476        4.4475951574  W2        59              0.0000000000
       177        59  TIP3      H2            -19.5417886291      -27.6323694476        3.4056151574  W2        59              0.0000000000
       178        60  TIP3      OH2           -18.6237686291      -23.6836794476      -10.5887048426  W2        60              0.0000000000
       179        60  TIP3      H1            -18.5816886291      -23.9062894476      -11.5187048426  W2        60              0.0000000000
       180        60  TIP3      H2            -17.7745586291      -23.2849694476      -10.3987148426  W2        60              0.0000000000
       181        61  TIP3      OH2           -23.0510186291      -29.8078594476       -9.9183748426  W2        61              0.0000000000
       182        61  TIP3      H1            -23.3045386291      -29.7886994476       -8.9955648426  W2        61              0.0000000000
       183        61  TIP3      H2            -23.3078086291      -30.6793194476      -10.2197548426  W2        61              0.0000000000
       184        62  TIP3      OH2           -27.2845186291      -27.0567894476        0.5168651574  W2        62              0.0000000000
       185        62  TIP3      H1            -27.9263086291      -27.0970594476        1.2258751574  W2        62              0.0000000000
       186        62  TIP3      H2            -27.2473186291      -26.1303194476        0.2791651574  W2        62              0.0000000000
       187        63  TIP3      OH2           -27.2876086291      -26.8357794476       -4.5711348426  W2        63              0.0000000000
       188        63  TIP3      H1            -28.1803186291      -27.1761694476       -4.6297548426  W2        63              0.0000000000
       189        63  TIP3      H2            -26.8369486291      -27.2126894476       -5.3268148426  W2        63              0.0000000000
       190        64  TIP3      OH2           -21.7520586291      -26.4197494476       -5.7540548426  W2        64              0.0000000000
       191        64  TIP3      H1            -22.1610286291      -25.6048894476       -6.0455748426  W2        64              0.0000000000
       192        64  TIP3      H2            -21.0314386291      -26.5597394476       -6.3683448426  W2        64              0.0000000000
       193        65  TIP3      OH2           -22.6498986291      -26.2441094476        5.7340151574  W2        65              0.0000000000
       194        65  TIP3      H1            -23.2125186291      -26.9489494476        6.0547951574  W2        65              0.0000000000
       195        65  TIP3      H2            -21.8235586291      -26.3649194476        6.2017751574  W2        65              0.0000000000
       196        66  TIP3      OH2           -20.7472886291      -26.9737094476       -2.9400848426  W2        66              0.0000000000
       197        66  TIP3      H1            -20.9428386291      -26.3680294476       -3.6550248426  W2        66              0.0000000000
       198        66  TIP3      H2            -20.5660286291      -27.8071894476       -3.3744548426  W2        66              0.0000000000
       199        67  TIP3      OH2           -29.5344686291      -26.7364394476        2.3840651574  W2        67              0.0000000000
       200        67  TIP3      H1            -29.5725286291      -26.3362794476        3.2527751574  W2        67              0.0000000000
       201        67  TIP3      H2            -30.0253586291      -27.5531994476        2.4743551574  W2        67              0.0000000000
       202        68  TIP3      OH2           -26.1687286291      -29.3622094476      -10.8173348426  W2        68              0.0000000000
       203        68  TIP3      H1            -26.5996586291      -29.8071994476      -10.0875948426  W2        68              0.0000000000
       204        68  TIP3      H2            -26.8868586291      -28.9905794476      -11.3295848426  W2        68              0.0000000000
       205        69  TIP3      OH2           -32.9263886291      -29.6202594476       -3.7654648426  W2        69              0.0000000000
       206        69  TIP3      H1            -32.2956186291      -29.6490494476       -3.0460748426  W2        69              0.0000000000
       207        69  TIP3      H2            -32.4769586291      -30.0453894476       -4.4958748426  W2        69              0.0000000000
       208        70  TIP3      OH2           -31.6521786291      -28.8740594476       -8.3414248426  W2        70              0.0000000000
       209        70  TIP3      H1            -31.1780086291      -28.2830694476       -8.9263348426  W2        70              0.0000000000
       210        70  TIP3      H2            -32.3695386291      -28.3437694476       -7.9944148426  W2        70              0.0000000000
       211        71  TIP3      OH2           -21.4833686291      -25.3355794476        1.7311551574  W2        71              0.0000000000
       212        71  TIP3      H1            -21.1598886291      -25.9666094476        1.0882051574  W2        71              0.0000000000
       213        71  TIP3      H2            -21.9234386291      -25.8703594476        2.3918951574  W2        71              0.0000000000
       214        72  TIP3      OH2           -24.7060786291      -29.4080294476       -3.4847248426  W2        72              0.0000000000
       215        72  TIP3      H1            -25.6169686291      -29.3513494476       -3.1961248426  W2        72              0.0000000000
       216        72  TIP3      H2            -24.2007886291      -29.4684794476       -2.6740048426  W2        72              0.0000000000
       217        73  TIP3      OH2           -29.8777386291      -27.7793994476       -4.6579648426  W2        73              0.0000000000
       218        73  TIP3      H1            -30.7669386291      -27.6798494476       -4.9980048426  W2        73              0.0000000000
       219        73  TIP3      H2            -29.5812486291      -28.6210994476       -5.0041748426  W2        73              0.0000000000
       220        74  TIP3      OH2           -26.2245586291      -27.7791394476       -7.0015048426  W2        74              0.0000000000
       221        74  TIP3      H1            -25.2930086291      -27.6501394476       -6.8231948426  W2        74              0.0000000000
       222        74  TIP3      H2            -26.4395286291      -27.1097094476       -7.6510348426  W2        74              0.0000000000
       223        75  TIP3      OH2           -20.3008886291      -30.1733994476       -0.2205448426  W2        75              0.0000000000
       224        75  TIP3      H1            -20.9777286291      -30.0420894476        0.4434251574  W2        75              0.0000000000
       225        75  TIP3      H2            -20.7863986291      -30.3284494476       -1.0307748426  W2        75              0.0000000000
       226        76  TIP3      OH2           -27.5505386291      -26.5849194476       -9.4348948426  W2        76              0.0000000000
       227        76  TIP3      H1            -28.0930286291      -26.9645394476      -10.1261348426  W2        76              0.0000000000
       228        76  TIP3      H2            -26.7170486291      -26.3904494476       -9.8634848426  W2        76              0.0000000000
       229        77  TIP3      OH2           -17.0133786291      -14.5018594476        6.0562151574  W2        77              0.0000000000
       230        77  TIP3      H1            -16.8135086291      -14.0776694476        5.2217451574  W2        77              0.0000000000
       231        77  TIP3      H2            -16.3580086291      -14.1580394476        6.6632551574  W2        77              0.0000000000
       232        78  TIP3      OH2           -29.4153986291      -22.0277294476        5.6642651574  W2        78              0.0000000000
       233        78  TIP3      H1            -28.6831586291      -21.7731394476        6.2257151574  W2        78              0.0000000000
       234        78  TIP3      H2            -30.1955286291      -21.8231894476        6.1798051574  W2        78              0.0000000000
       235        79  TIP3      OH2           -23.3861086291      -26.6207294476       -1.5977648426  W2        79              0.0000000000
       236        79  TIP3      H1            -22.8217686291      -27.1670694476       -2.1448048426  W2        79              0.0000000000
       237        79  TIP3      H2            -23.5337686291      -27.1425394476       -0.8090048426  W2        79              0.0000000000
       238        80  TIP3      OH2           -28.3841386291      -30.4841194476       -5.1792848426  W2        80              0.0000000000
       239        80  TIP3      H1            -28.7011886291      -31.3865894476       -5.2147448426  W2        80              0.0000000000
       240        80  TIP3      H2            -27.6027286291      -30.4823794476       -5.7321248426  W2        80              0.0000000000
       241        81  TIP3      OH2           -24.7595186291      -28.2321194476        0.8162751574  W2        81              0.0000000000
       242        81  TIP3      H1            -25.5949886291      -27.7781694476        0.9265151574  W2        81              0.0000000000
       243        81  TIP3      H2            -24.2354586291      -27.9562694476        1.5682651574  W2        81              0.0000000000
       244        82  TIP3      OH2           -24.2152586291      -22.0193494476       -7.4990848426  W2        82              0.0000000000
       245        82  TIP3      H1            -24.9601586291      -22.5268194476       -7.8212948426  W2        82              0.0000000000
       246        82  TIP3      H2            -24.3495386291      -21.9705494476       -6.5526048426  W2        82              0.0000000000
       247        83  TIP3      OH2           -17.0653686291      -22.8865294476        1.2876751574  W2        83              0.0000000000
       248        83  TIP3      H1            -16.4234886291      -22.4298994476        0.7438951574  W2        83              0.0000000000
       249        83  TIP3      H2            -17.8956786291      -22.7732894476        0.8250851574  W2        83              0.0000000000
       250        84  TIP3      OH2           -20.3175786291      -29.2053594476       -9.2998248426  W2        84              0.0000000000
       251        84  TIP3      H1            -21.2561586291      -29.0937994476       -9.4509448426  W2        84              0.0000000000
       252        84  TIP3      H2            -20.0203686291      -28.3486694476       -8.9932548426  W2        84              0.0000000000
       253        85  TIP3      OH2           -22.6960486291      -21.8350194476        3.7378251574  W2        85              0.0000000000
       254        85  TIP3      H1            -23.0414386291      -22.2167794476        4.5447851574  W2        85              0.0000000000
       255        85  TIP3      H2            -22.8960386291      -20.9016594476        3.8091151574  W2        85              0.0000000000
       256        86  TIP3      OH2           -19.5992286291      -27.3380894476       -7.6390848426  W2        86              0.0000000000
       257        86  TIP3      H1            -18.7073286291      -27.4755894476       -7.3199648426  W2        86              0.0000000000
       258        86  TIP3      H2            -19.5428686291      -26.5474794476       -8.1757348426  W2        86              0.0000000000
       259        87  TIP3      OH2           -29.0904286291      -22.7243494476       -1.7292948426  W2        87              0.0000000000
       260        87  TIP3      H1            -28.3457086291      -22.7267794476       -2.3306448426  W2        87              0.0000000000
       261        87  TIP3      H2            -29.0127686291      -23.5479694476       -1.2477848426  W2        87              0.0000000000
       262        88  TIP3      OH2           -22.0898486291      -20.5609194476       -8.4736248426  W2        88              0.0000000000
       263        88  TIP3      H1            -22.3850086291      -19.7341294476       -8.0921448426  W2        88              0.0000000000
       264        88  TIP3      H2            -22.7928486291      -21.1802294476       -8.2774848426  W2        88              0.0000000000
       265        89  TIP3      OH2           -32.0824586291      -24.2636594476        3.5855551574  W2        89              0.0000000000
       266        89  TIP3      H1            -31.8595986291      -24.6816994476        4.4173051574  W2        89              0.0000000000
       267        89  TIP3      H2            -32.6844486291      -24.8761594476        3.1628351574  W2        89              0.0000000000
       268        90  TIP3      OH2           -25.0659686291      -24.7466694476        5.7985251574  W2        90              0.0000000000
       269        90  TIP3      H1            -25.3618886291      -24.9123694476        4.9034351574  W2        90              0.0000000000
       270        90  TIP3      H2            -24.1344486291      -24.9666394476        5.7879151574  W2        90              0.0000000000
       271        91  TIP3      OH2           -20.4456886291      -19.3734694476        3.6883251574  W2        91              0.0000000000
       272        91  TIP3      H1            -21.3462586291      -19.1902094476        3.4207151574  W2        91              0.0000000000
       273        91  TIP3      H2            -20.4115786291      -19.1145394476        4.6092051574  W2        91              0.0000000000
       274        92  TIP3      OH2           -14.7143586291      -27.1286794476       -7.9444148426  W2        92              0.0000000000
       275        92  TIP3      H1            -15.2687286291      -27.5248794476       -8.6166648426  W2        92              0.0000000000
       276        92  TIP3      H2            -14.6139986291      -26.2181594476       -8.2220848426  W2        92              0.0000000000
       277        93  TIP3      OH2           -14.7511586291      -21.3285094476        4.8927351574  W2        93              0.0000000000
       278        93  TIP3      H1            -15.6023086291      -21.0901294476        4.5253751574  W2        93              0.0000000000
       279        93  TIP3      H2            -14.1608186291      -21.3451894476        4.1394451574  W2        93              0.0000000000
       280        94  TIP3      OH2           -16.4191886291      -18.3426394476       -7.4792048426  W2        94              0.0000000000
       281        94  TIP3      H1            -16.7920786291      -19.1682594476       -7.1701448426  W2        94              0.0000000000
       282        94  TIP3      H2            -16.1418386291      -18.5256994476       -8.3768648426  W2        94              0.0000000000
       283        95  TIP3      OH2           -19.2587986291      -23.5346894476       -0.4580148426  W2        95              0.0000000000
       284        95  TIP3      H1            -20.1871086291      -23.7664994476       -0.4850848426  W2        95              0.0000000000
       285        95  TIP3      H2            -18.8076886291      -24.3117094476       -0.7881348426  W2        95              0.0000000000
       286        96  TIP3      OH2           -26.7154886291      -19.2065294476       -4.3251448426  W2        96              0.0000000000
       287        96  TIP3      H1            -26.1882686291      -18.4330894476       -4.5252648426  W2        96              0.0000000000
       288        96  TIP3      H2            -27.5956386291      -18.9816094476       -4.6267448426  W2        96              0.0000000000
       289        97  TIP3      OH2           -30.9607186291      -24.3441194476       -9.7379048426  W2        97              0.0000000000
       290        97  TIP3      H1            -30.3447286291      -23.7173994476       -9.3584248426  W2        97              0.0000000000
       291        97  TIP3      H2            -31.8224586291      -24.0281394476       -9.4662548426  W2        97              0.0000000000
       292        98  TIP3      OH2           -25.2882586291      -21.5435394476       -4.7487148426  W2        98              0.0000000000
       293        98  TIP3      H1            -25.5292586291      -20.6180994476       -4.7071848426  W2        98              0.0000000000
       294        98  TIP3      H2            -26.0288986291      -22.0024094476       -4.3523248426  W2        98              0.0000000000
       295        99  TIP3      OH2           -24.7735986291      -17.3941794476        1.5663951574  W2        99              0.0000000000
       296        99  TIP3      H1            -24.4111286291      -16.5396194476        1.3328351574  W2        99              0.0000000000
       297        99  TIP3      H2            -24.2420786291      -17.6860194476        2.3070251574  W2        99              0.0000000000
       298       100  TIP3      OH2           -26.6051786291      -16.5217794476       -5.2034948426  W2        100             0.0000000000
       299       100  TIP3      H1            -27.5551286291      -16.4160394476       -5.1521648426  W2        100             0.0000000000
       300       100  TIP3      H2            -26.2533686291      -15.7010394476       -4.8587448426  W2        100             0.0000000000
       301       101  TIP3      OH2           -21.2295186291      -21.2951094476        1.2669551574  W2        101             0.0000000000
       302       101  TIP3      H1            -21.6553886291      -21.5229394476        2.0933551574  W2        101             0.0000000000
       303       101  TIP3      H2            -20.6489386291      -22.0339294476        1.0844851574  W2        101             0.0000000000
       304       102  TIP3      OH2           -19.0266286291      -20.3660594476       -9.6591448426  W2        102             0.0000000000
       305       102  TIP3      H1            -18.6733186291      -20.7460794476       -8.8547948426  W2        102             0.0000000000
       306       102  TIP3      H2            -19.9752786291      -20.4595794476       -9.5722148426  W2        102             0.0000000000
       307       103  TIP3      OH2           -18.5710986291      -16.7431594476        3.7364351574  W2        103             0.0000000000
       308       103  TIP3      H1            -19.1727786291      -17.2988694476        3.2410651574  W2        103             0.0000000000
       309       103  TIP3      H2            -18.2897286291      -16.0761794476        3.1101751574  W2        103             0.0000000000
       310       104  TIP3      OH2           -14.5231886291      -15.8868094476       -9.4581248426  W2        104             0.0000000000
       311       104  TIP3      H1            -13.7793986291      -15.3007594476       -9.5979648426  W2        104             0.0000000000
       312       104  TIP3      H2            -15.2173786291      -15.3182294476       -9.1248848426  W2        104             0.0000000000
       313       105  TIP3      OH2           -30.4485086291      -29.5103894476        3.1436951574  W2        105             0.0000000000
       314       105  TIP3      H1            -31.3412786291      -29.1718494476        3.0760951574  W2        105             0.0000000000
       315       105  TIP3      H2            -30.5472286291      -30.3657794476        3.5617751574  W2        105             0.0000000000
       316       106  TIP3      OH2           -18.1606986291      -21.6938594476       -7.4323548426  W2        106             0.0000000000
       317       106  TIP3      H1            -18.4379386291      -22.4219294476       -6.8762448426  W2        106             0.0000000000
       318       106  TIP3      H2            -17.2333986291      -21.5746594476       -7.2270948426  W2        106             0.0000000000
       319       107  TIP3      OH2           -30.7973086291      -17.7059494476        1.5786351574  W2        107             0.0000000000
       320       107  TIP3      H1            -30.5802786291      -18.6377094476        1.5476051574  W2        107             0.0000000000
       321       107  TIP3      H2            -30.5509586291      -17.4314494476        2.4619151574  W2        107             0.0000000000
       322       108  TIP3      OH2           -24.9358486291      -19.2544494476      -11.2121448426  W2        108             0.0000000000
       323       108  TIP3      H1            -24.6968686291      -20.0026394476      -11.7592548426  W2        108             0.0000000000
       324       108  TIP3      H2            -25.2047186291      -19.6422794476      -10.3793648426  W2        108             0.0000000000
       325       109  TIP3      OH2           -25.9987886291      -19.6840694476       -8.7558848426  W2        109             0.0000000000
       326       109  TIP3      H1            -25.8519886291      -20.2040894476       -7.9657948426  W2        109             0.0000000000
       327       109  TIP3      H2            -26.0016186291      -18.7773094476       -8.4492948426  W2        109             0.0000000000
       328       110  TIP3      OH2           -29.5456786291      -22.4317394476       -8.2453448426  W2        110             0.0000000000
       329       110  TIP3      H1            -30.2317486291      -22.0794894476       -7.6783748426  W2        110             0.0000000000
       330       110  TIP3      H2            -29.0228886291      -21.6687794476       -8.4919148426  W2        110             0.0000000000
       331       111  TIP3      OH2           -21.7141686291      -29.7693594476        2.0335551574  W2        111             0.0000000000
       332       111  TIP3      H1            -21.0153786291      -29.6954894476        2.6835251574  W2        111             0.0000000000
       333       111  TIP3      H2            -22.0950286291      -30.6338594476        2.1878451574  W2        111             0.0000000000
       334       112  TIP3      OH2           -20.9296786291      -30.1171894476       -6.8692148426  W2        112             0.0000000000
       335       112  TIP3      H1            -20.7098486291      -29.6456494476       -7.6726748426  W2        112             0.0000000000
       336       112  TIP3      H2            -20.3712786291      -29.7229294476       -6.1991548426  W2        112             0.0000000000
       337       113  TIP3      OH2           -23.2610686291      -17.9867094476       -8.0064648426  W2        113             0.0000000000
       338       113  TIP3      H1            -24.0774586291      -17.4897394476       -7.9540348426  W2        113             0.0000000000
       339       113  TIP3      H2            -22.7314386291      -17.5113594476       -8.6465848426  W2        113             0.0000000000
       340       114  TIP3      OH2           -23.7296886291      -28.3893094476       -6.0343748426  W2        114             0.0000000000
       341       114  TIP3      H1            -22.9174286291      -27.8849894476       -5.9882048426  W2        114             0.0000000000
       342       114  TIP3      H2            -23.9743886291      -28.5343394476       -5.1204148426  W2        114             0.0000000000
       343       115  TIP3      OH2           -23.1940486291      -27.4030394476        3.1502851574  W2        115             0.0000000000
       344       115  TIP3      H1            -23.0750186291      -26.8294994476        3.9073251574  W2        115             0.0000000000
       345       115  TIP3      H2            -22.5385886291      -28.0910994476        3.2650651574  W2        115             0.0000000000
       346       116  TIP3      OH2           -22.8460186291      -31.3080094476       -5.0962648426  W2        116             0.0000000000
       347       116  TIP3      H1            -23.1926686291      -30.6909494476       -4.4518348426  W2        116             0.0000000000
       348       116  TIP3      H2            -22.1873286291      -30.8074394476       -5.5777148426  W2        116             0.0000000000
       349       117  TIP3      OH2           -25.9227586291      -16.9429894476       -8.0247748426  W2        117             0.0000000000
       350       117  TIP3      H1            -25.7618886291      -16.1432394476       -8.5255148426  W2        117             0.0000000000
       351       117  TIP3      H2            -26.1199786291      -16.6363894476       -7.1397148426  W2        117             0.0000000000
       352       118  TIP3      OH2           -27.1883186291      -30.2450694476       -8.4090148426  W2        118             0.0000000000
       353       118  TIP3      H1            -27.2718386291      -29.3567594476       -8.0623748426  W2        118             0.0000000000
       354       118  TIP3      H2            -26.2982886291      -30.5103994476       -8.1773348426  W2        118             0.0000000000
       355       119  TIP3      OH2           -16.9894686291      -29.4960094476        3.9852551574  W2        119             0.0000000000
       356       119  TIP3      H1            -17.9058886291      -29.2338394476        3.8976251574  W2        119             0.0000000000
       357       119  TIP3      H2            -16.6539686291      -29.4991094476        3.0887851574  W2        119             0.0000000000
       358       120  TIP3      OH2           -18.3873686291      -25.7459094476       -1.9190148426  W2        120             0.0000000000
       359       120  TIP3      H1            -19.1849286291      -26.1608894476       -2.2475148426  W2        120             0.0000000000
       360       120  TIP3      H2            -17.9422586291      -26.4365394476       -1.4279648426  W2        120             0.0000000000
       361       121  TIP3      OH2           -28.9297886291      -19.8178494476       -9.3485648426  W2        121             0.0000000000
       362       121  TIP3      H1            -28.3376386291      -19.1183694476       -9.0723248426  W2        121             0.0000000000
       363       121  TIP3      H2            -28.4704886291      -20.2508994476      -10.0681048426  W2        121             0.0000000000
       364       122  TIP3      OH2           -30.6138686291      -27.1535494476      -10.2326248426  W2        122             0.0000000000
       365       122  TIP3      H1            -30.6586086291      -26.2142394476      -10.0539248426  W2        122             0.0000000000
       366       122  TIP3      H2            -31.5015486291      -27.3890594476      -10.5024148426  W2        122             0.0000000000
       367       123  TIP3      OH2           -17.3009086291      -16.4896594476       -0.2966648426  W2        123             0.0000000000
       368       123  TIP3      H1            -17.4564786291      -15.8112194476       -0.9537348426  W2        123             0.0000000000
       369       123  TIP3      H2            -16.3682686291      -16.4177294476       -0.0936048426  W2        123             0.0000000000
       370       124  TIP3      OH2           -29.8056686291      -32.3718894476       -1.5595248426  W2        124             0.0000000000
       371       124  TIP3      H1            -30.0346886291      -32.3126394476       -2.4870248426  W2        124             0.0000000000
       372       124  TIP3      H2            -30.2483286291      -33.1633394476       -1.2531148426  W2        124             0.0000000000
       373       125  TIP3      OH2           -30.8753386291      -18.4311794476       -5.3989448426  W2        125             0.0000000000
       374       125  TIP3      H1            -31.7074786291      -17.9589094476       -5.3718048426  W2        125             0.0000000000
       375       125  TIP3      H2            -30.3295086291      -17.9214194476       -5.9976348426  W2        125             0.0000000000
       376       126  TIP3      OH2           -31.5869686291      -15.8188094476        5.9308551574  W2        126             0.0000000000
       377       126  TIP3      H1            -31.0467486291      -16.0354094476        6.6907751574  W2        126             0.0000000000
       378       126  TIP3      H2            -32.0681686291      -16.6242094476        5.7411051574  W2        126             0.0000000000
       379       127  TIP3      OH2           -26.9896286291      -16.8993694476        7.5512751574  W2        127             0.0000000000
       380       127  TIP3      H1            -26.2219086291      -17.3582894476        7.8921951574  W2        127             0.0000000000
       381       127  TIP3      H2            -27.0110086291      -17.1253894476        6.6213951574  W2        127             0.0000000000
       382       128  TIP3      OH2           -22.8976686291      -17.3913094476      -11.0735448426  W2        128             0.0000000000
       383       128  TIP3      H1            -23.5415686291      -18.0224494476      -10.7521748426  W2        128             0.0000000000
       384       128  TIP3      H2            -22.1358386291      -17.9225094476      -11.3051948426  W2        128             0.0000000000
       385       129  TIP3      OH2           -20.4127586291      -18.5192594476        6.2804251574  W2        129             0.0000000000
       386       129  TIP3      H1            -20.7638086291      -19.3759594476        6.5234651574  W2        129             0.0000000000
       387       129  TIP3      H2            -19.6864386291      -18.3765894476        6.8873251574  W2        129             0.0000000000
       388       130  TIP3      OH2           -18.2933786291      -17.5743194476      -10.8397448426  W2        130             0.0000000000
       389       130  TIP3      H1            -18.0103386291      -18.3687994476      -10.3870548426  W2        130             0.0000000000
       390       130  TIP3      H2            -17.5535886291      -17.3412194476      -11.4006348426  W2        130             0.0000000000
       391       131  TIP3      OH2           -31.6800186291      -22.0083994476        6.8852851574  W2        131             0.0000000000
       392       131  TIP3      H1            -31.5359686291      -22.9103294476        6.5989551574  W2        131             0.0000000000
       393       131  TIP3      H2            -32.4522786291      -21.7221894476        6.3975151574  W2        131             0.0000000000
       394       132  TIP3      OH2           -27.3386486291      -21.6648294476      -10.9822548426  W2        132             0.0000000000
       395       132  TIP3      H1            -27.2742386291      -22.4588694476      -10.4516148426  W2        132             0.0000000000
       396       132  TIP3      H2            -26.6857286291      -21.7835494476      -11.6720548426  W2        132             0.0000000000
       397       133  TIP3      OH2           -25.0244086291      -22.0385894476        6.3179251574  W2        133             0.0000000000
       398       133  TIP3      H1            -25.3530286291      -21.7677794476        5.4606651574  W2        133             0.0000000000
       399       133  TIP3      H2            -24.8725886291      -22.9796094476        6.2304251574  W2        133             0.0000000000
       400       134  TIP3      OH2           -21.9863086291      -20.6176594476      -11.2464548426  W2        134             0.0000000000
       401       134  TIP3      H1            -22.2548986291      -20.4374494476      -10.3455648426  W2        134             0.0000000000
       402       134  TIP3      H2            -22.1927486291      -21.5430394476      -11.3778748426  W2        134             0.0000000000
       403       135  TIP3      OH2           -19.2898886291      -22.1228594476        3.7011551574  W2        135             0.0000000000
       404       135  TIP3      H1            -18.5444086291      -21.5344894476        3.5815551574  W2        135             0.0000000000
       405       135  TIP3      H2            -20.0472086291      -21.5408894476        3.7644651574  W2        135             0.0000000000
       406       136  TIP3      OH2           -30.8473686291      -24.8080694476        6.3052151574  W2        136             0.0000000000
       407       136  TIP3      H1            -30.4392486291      -25.6654094476        6.1842751574  W2        136             0.0000000000
       408       136  TIP3      H2            -31.1076086291      -24.7939394476        7.2262451574  W2        136             0.0000000000
       409       137  TIP3      OH2           -26.1892686291      -23.6922094476       -8.6764548426  W2        137             0.0000000000
       410       137  TIP3      H1            -26.6490686291      -24.1763794476       -7.9906048426  W2        137             0.0000000000
       411       137  TIP3      H2            -25.9343986291      -24.3606694476       -9.3124048426  W2        137             0.0000000000
       412       138  TIP3      OH2           -26.9003386291      -25.7994994476        3.6795051574  W2        138             0.0000000000
       413       138  TIP3      H1            -27.5187286291      -25.1248394476        3.9599751574  W2        138             0.0000000000
       414       138  TIP3      H2            -26.5562186291      -25.4781094476        2.8461251574  W2        138             0.0000000000
       415       139  TIP3      OH2           -25.1182286291      -25.4490294476      -10.4141348426  W2        139             0.0000000000
       416       139  TIP3      H1            -25.2987286291      -25.6039094476      -11.3413048426  W2        139             0.0000000000
       417       139  TIP3      H2            -24.1681786291      -25.3411594476      -10.3693448426  W2        139             0.0000000000
       418       140  TIP3      OH2           -21.8805186291      -23.3279694476        6.9569851574  W2        140             0.0000000000
       419       140  TIP3      H1            -20.9273986291      -23.2440594476        6.9295851574  W2        140             0.0000000000
       420       140  TIP3      H2            -22.0410586291      -24.0397894476        7.5764751574  W2        140             0.0000000000
       421       141  TIP3      OH2           -15.7283986291      -23.0946094476      -10.9683248426  W2        141             0.0000000000
       422       141  TIP3      H1            -16.0019186291      -23.5190594476      -11.7814948426  W2        141             0.0000000000
       423       141  TIP3      H2            -15.6889886291      -22.1631594476      -11.1852848426  W2        141             0.0000000000
       424       142  TIP3      OH2           -26.5609686291      -28.4444194476        4.7618151574  W2        142             0.0000000000
       425       142  TIP3      H1            -26.4108786291      -29.1732894476        4.1597851574  W2        142             0.0000000000
       426       142  TIP3      H2            -26.5587286291      -27.6672494476        4.2030351574  W2        142             0.0000000000
       427       143  TIP3      OH2           -26.1483986291      -30.0748394476        2.2545551574  W2        143             0.0000000000
       428       143  TIP3      H1            -25.6126486291      -29.6231694476        1.6024851574  W2        143             0.0000000000
       429       143  TIP3      H2            -27.0004386291      -30.1828594476        1.8319651574  W2        143             0.0000000000
       430       144  TIP3      OH2           -24.5665586291      -24.6352194476        2.4940751574  W2        144             0.0000000000
       431       144  TIP3      H1            -23.8160786291      -24.7914694476        1.9208551574  W2        144             0.0000000000
       432       144  TIP3      H2            -24.9057286291      -23.7835594476        2.2186251574  W2        144             0.0000000000
       433       145  TIP3      OH2           -20.1509386291      -26.8200394476        7.5226051574  W2        145             0.0000000000
       434       145  TIP3      H1            -19.9588086291      -27.7510994476        7.4110551574  W2        145             0.0000000000
       435       145  TIP3      H2            -19.2933086291      -26.3950894476        7.5121451574  W2        145             0.0000000000
       436       146  TIP3      OH2           -18.8342186291      -24.0315194476        5.5998751574  W2        146             0.0000000000
       437       146  TIP3      H1            -19.1157186291      -23.3220594476        5.0222551574  W2        146             0.0000000000
       438       146  TIP3      H2            -17.8917886291      -24.1042194476        5.4489951574  W2        146             0.0000000000
       439       147  TIP3      OH2           -28.0823386291      -27.2460694476        6.6733751574  W2        147             0.0000000000
       440       147  TIP3      H1            -28.8494386291      -27.7785894476        6.4631351574  W2        147             0.0000000000
       441       147  TIP3      H2            -27.4034386291      -27.5560294476        6.0740051574  W2        147             0.0000000000
       442       148  TIP3      OH2           -25.3428486291      -32.6182694476        2.6859151574  W2        148             0.0000000000
       443       148  TIP3      H1            -25.4408886291      -31.6719494476        2.5805351574  W2        148             0.0000000000
       444       148  TIP3      H2            -26.0852286291      -32.9908894476        2.2102651574  W2        148             0.0000000000
       445       149  TIP3      OH2           -24.0787986291      -28.2967294476        6.2497551574  W2        149             0.0000000000
       446       149  TIP3      H1            -24.3142586291      -28.5160594476        7.1512451574  W2        149             0.0000000000
       447       149  TIP3      H2            -24.8621086291      -28.5036094476        5.7400051574  W2        149             0.0000000000
       448       150  TIP3      OH2           -21.3631386291      -29.1693794476        5.3251051574  W2        150             0.0000000000
       449       150  TIP3      H1            -22.3105986291      -29.1374094476        5.4574351574  W2        150             0.0000000000
       450       150  TIP3      H2            -21.0504686291      -29.7946694476        5.9789251574  W2        150             0.0000000000
       451       151  TIP3      OH2           -19.7289886291      -30.5352694476        7.3302951574  W2        151             0.0000000000
       452       151  TIP3      H1            -19.8258086291      -31.4875394476        7.3244851574  W2        151             0.0000000000
       453       151  TIP3      H2            -20.0506786291      -30.2665894476        8.1908451574  W2        151             0.0000000000
       454       152  TIP3      OH2           -29.9020586291      -29.3256894476        6.3778451574  W2        152             0.0000000000
       455       152  TIP3      H1            -29.6903186291      -30.0320794476        5.7675951574  W2        152             0.0000000000
       456       152  TIP3      H2            -30.0133086291      -29.7630894476        7.2219651574  W2        152             0.0000000000
       457       153  TIP3      OH2           -25.1210386291      -33.3245294476        5.3571951574  W2        153             0.0000000000
       458       153  TIP3      H1            -24.4091986291      -33.9643094476        5.3431051574  W2        153             0.0000000000
       459       153  TIP3      H2            -25.2219986291      -33.0576994476        4.4435051574  W2        153             0.0000000000
       460       154  TIP3      OH2           -24.7672886291      -31.6416894476        7.4108251574  W2        154             0.0000000000
       461       154  TIP3      H1            -24.8990686291      -32.1173094476        6.5906751574  W2        154             0.0000000000
       462       154  TIP3      H2            -25.3665486291      -30.8973294476        7.3555351574  W2        154             0.0000000000
       463       155  TIP3      OH2           -25.2210586291      -14.7586594476       -9.4127748426  W2        155             0.0000000000
       464       155  TIP3      H1            -24.2879886291      -14.6007894476       -9.2689348426  W2        155             0.0000000000
       465       155  TIP3      H2            -25.4851786291      -14.0833594476      -10.0376248426  W2        155             0.0000000000
       466       156  TIP3      OH2           -31.6525686291      -20.1222794476       -9.9299648426  W2        156             0.0000000000
       467       156  TIP3      H1            -30.7386486291      -20.0433894476       -9.6565748426  W2        156             0.0000000000
       468       156  TIP3      H2            -31.6452586291      -20.8093194476      -10.5964048426  W2        156             0.0000000000
       469       157  TIP3      OH2           -33.0035086291      -14.7294294476       -4.8525748426  W2        157             0.0000000000
       470       157  TIP3      H1            -33.6507986291      -15.1912594476       -5.3854548426  W2        157             0.0000000000
       471       157  TIP3      H2            -32.6490486291      -15.4010994476       -4.2699548426  W2        157             0.0000000000
       472       158  TIP3      OH2           -32.1335886291      -16.6487294476       -3.0479548426  W2        158             0.0000000000
       473       158  TIP3      H1            -32.4679086291      -17.5289994476       -2.8759348426  W2        158             0.0000000000
       474       158  TIP3      H2            -31.9113486291      -16.3032294476       -2.1833948426  W2        158             0.0000000000
       475       159  TIP3      OH2           -14.5851086291      -15.8390894476       -0.0674748426  W2        159             0.0000000000
       476       159  TIP3      H1            -14.6064386291      -15.6542494476        0.8714651574  W2        159             0.0000000000
       477       159  TIP3      H2            -13.8944886291      -15.2706894476       -0.4083348426  W2        159             0.0000000000
       478       160  TIP3      OH2           -15.0218186291      -16.2719794476        2.8544351574  W2        160             0.0000000000
       479       160  TIP3      H1            -15.5089486291      -17.0075694476        2.4831751574  W2        160             0.0000000000
       480       160  TIP3      H2            -14.4725486291      -16.6655894476        3.5323751574  W2        160             0.0000000000
       481       161  TIP3      OH2           -16.5710886291      -20.4821694476        7.4924651574  W2        161             0.0000000000
       482       161  TIP3      H1            -17.4369786291      -20.5871994476        7.8866951574  W2        161             0.0000000000
       483       161  TIP3      H2            -16.1944986291      -19.7238394476        7.9389351574  W2        161             0.0000000000
       484       162  TIP3      OH2           -15.2701186291      -22.2257994476       -6.9932848426  W2        162             0.0000000000
       485       162  TIP3      H1            -14.4199786291      -21.8047094476       -6.8661248426  W2        162             0.0000000000
       486       162  TIP3      H2            -15.2646086291      -22.9657894476       -6.3861448426  W2        162             0.0000000000
       487       163  TIP3      OH2           -14.8755586291      -24.1720594476       -5.1697148426  W2        163             0.0000000000
       488       163  TIP3      H1            -15.6020986291      -24.6517994476       -4.7719548426  W2        163             0.0000000000
       489       163  TIP3      H2            -14.2942286291      -23.9665894476       -4.4375548426  W2        163             0.0000000000
       490       164  TIP3      OH2           -15.1164386291      -21.3873094476       -0.2219548426  W2        164             0.0000000000
       491       164  TIP3      H1            -14.2830186291      -21.7653094476       -0.5025948426  W2        164             0.0000000000
       492       164  TIP3      H2            -15.0044086291      -20.4441894476       -0.3410448426  W2        164             0.0000000000
       493       165  TIP3      OH2           -16.6302086291      -18.5095594476        2.0848851574  W2        165             0.0000000000
       494       165  TIP3      H1            -17.2776786291      -18.1844094476        2.7104051574  W2        165             0.0000000000
       495       165  TIP3      H2            -17.1478086291      -18.9497894476        1.4107151574  W2        165             0.0000000000
       496       166  TIP3      OH2           -14.6072486291      -24.2712094476       -8.7785848426  W2        166             0.0000000000
       497       166  TIP3      H1            -15.1291386291      -23.9147994476       -9.4974948426  W2        166             0.0000000000
       498       166  TIP3      H2            -14.6403286291      -23.5964294476       -8.1004948426  W2        166             0.0000000000
       499       167  TIP3      OH2           -16.2583486291      -27.0316494476      -10.2278748426  W2        167             0.0000000000
       500       167  TIP3      H1            -16.1619086291      -26.3649494476      -10.9079048426  W2        167             0.0000000000
       501       167  TIP3      H2            -16.3983886291      -27.8470194476      -10.7093248426  W2        167             0.0000000000
       502       168  TIP3      OH2           -17.0888786291      -25.6514094476       -4.6068448426  W2        168             0.0000000000
       503       168  TIP3      H1            -17.2389986291      -26.5965494476       -4.6270648426  W2        168             0.0000000000
       504       168  TIP3      H2            -17.4424286291      -25.3702694476       -3.7629348426  W2        168             0.0000000000
       505       169  TIP3      OH2           -32.0536386291      -23.5731894476       -0.5964648426  W2        169             0.0000000000
       506       169  TIP3      H1            -31.8693486291      -23.6550194476       -1.5321748426  W2        169             0.0000000000
       507       169  TIP3      H2            -31.2043486291      -23.6974894476       -0.1728248426  W2        169             0.0000000000
       508       170  TIP3      OH2           -16.2325886291      -23.6810794476        5.0319851574  W2        170             0.0000000000
       509       170  TIP3      H1            -15.6498586291      -24.4158494476        5.2237051574  W2        170             0.0000000000
       510       170  TIP3      H2            -15.6686586291      -22.9090494476        5.0785651574  W2        170             0.0000000000
       511       171  TIP3      OH2           -14.7358786291      -25.7784994476        5.7165251574  W2        171             0.0000000000
       512       171  TIP3      H1            -15.5992086291      -26.1572894476        5.5509951574  W2        171             0.0000000000
       513       171  TIP3      H2            -14.1315086291      -26.5170194476        5.6421051574  W2        171             0.0000000000
       514       172  TIP3      OH2           -17.0109686291      -29.6236694476      -11.1103248426  W2        172             0.0000000000
       515       172  TIP3      H1            -16.4003886291      -29.9949894476      -10.4735048426  W2        172             0.0000000000
       516       172  TIP3      H2            -17.8478186291      -30.0449794476      -10.9143248426  W2        172             0.0000000000
       517       173  TIP3      OH2           -17.3783986291      -28.0688294476       -6.1443348426  W2        173             0.0000000000
       518       173  TIP3      H1            -17.0986886291      -28.9757894476       -6.0201648426  W2        173             0.0000000000
       519       173  TIP3      H2            -16.6192286291      -27.6346794476       -6.5334148426  W2        173             0.0000000000
       520       174  TIP3      OH2           -16.7665686291      -27.4870894476       -0.7084448426  W2        174             0.0000000000
       521       174  TIP3      H1            -15.8337686291      -27.2750994476       -0.7428448426  W2        174             0.0000000000
       522       174  TIP3      H2            -17.0018186291      -27.3858794476        0.2138551574  W2        174             0.0000000000
       523       175  TIP3      OH2           -16.7373786291      -26.7505594476        2.0674951574  W2        175             0.0000000000
       524       175  TIP3      H1            -17.5802486291      -26.4825194476        2.4334751574  W2        175             0.0000000000
       525       175  TIP3      H2            -16.2949486291      -25.9283694476        1.8566051574  W2        175             0.0000000000
       526       176  TIP3      OH2           -32.4561586291      -28.3026894476        5.5444151574  W2        176             0.0000000000
       527       176  TIP3      H1            -31.5366686291      -28.4248594476        5.7807251574  W2        176             0.0000000000
       528       176  TIP3      H2            -32.9057086291      -29.0527194476        5.9337651574  W2        176             0.0000000000
       529       177  TIP3      OH2           -14.4542186291      -32.7705394476        7.4209951574  W2        177             0.0000000000
       530       177  TIP3      H1            -14.1045186291      -33.4241894476        6.8154651574  W2        177             0.0000000000
       531       177  TIP3      H2            -14.3072686291      -31.9331294476        6.9812551574  W2        177             0.0000000000
       532       178  TIP3      OH2           -16.7649186291      -30.8058994476       -6.0961348426  W2        178             0.0000000000
       533       178  TIP3      H1            -16.5824186291      -31.2547494476       -5.2706348426  W2        178             0.0000000000
       534       178  TIP3      H2            -17.3646286291      -31.3904594476       -6.5596748426  W2        178             0.0000000000
       535       179  TIP3      OH2           -31.2349086291      -29.9905294476       -1.5642948426  W2        179             0.0000000000
       536       179  TIP3      H1            -30.7897486291      -30.7822794476       -1.2623248426  W2        179             0.0000000000
       537       179  TIP3      H2            -30.7686086291      -29.2740094476       -1.1337348426  W2        179             0.0000000000
       538       180  TIP3      OH2           -32.9308786291      -26.9912294476       -0.4952748426  W2        180             0.0000000000
       539       180  TIP3      H1            -32.4388986291      -27.2121794476       -1.2860748426  W2        180             0.0000000000
       540       180  TIP3      H2            -32.5687886291      -26.1508894476       -0.2143248426  W2        180             0.0000000000
       541       181  TIP3      OH2           -14.9344986291      -30.6610794476        5.7701251574  W2        181             0.0000000000
       542       181  TIP3      H1            -15.8519286291      -30.3903694476        5.7344751574  W2        181             0.0000000000
       543       181  TIP3      H2            -14.8115586291      -31.1962394476        4.9860951574  W2        181             0.0000000000
       544       182  TIP3      OH2           -14.8982986291      -30.7380894476       -9.5681048426  W2        182             0.0000000000
       545       182  TIP3      H1            -14.4860386291      -31.4595194476      -10.0433048426  W2        182             0.0000000000
       546       182  TIP3      H2            -14.2166486291      -30.0686294476       -9.5096748426  W2        182             0.0000000000
       547       183  TIP3      OH2           -32.6172286291      -30.7333194476       -6.4410348426  W2        183             0.0000000000
       548       183  TIP3      H1            -33.5423886291      -30.5246594476       -6.5704848426  W2        183             0.0000000000
       549       183  TIP3      H2            -32.1632386291      -30.2492394476       -7.1308048426  W2        183             0.0000000000
       550       184  TIP3      OH2           -17.8465086291      -15.7491494476       -4.4952948426  W2        184             0.0000000000
       551       184  TIP3      H1            -17.1942186291      -16.0969394476       -5.1033848426  W2        184             0.0000000000
       552       184  TIP3      H2            -17.3361286291      -15.2608294476       -3.8493248426  W2        184             0.0000000000
       553       185  TIP3      OH2           -32.6536886291      -31.9954194476        1.9032151574  W2        185             0.0000000000
       554       185  TIP3      H1            -33.3186386291      -32.2413894476        2.5463051574  W2        185             0.0000000000
       555       185  TIP3      H2            -33.0965586291      -31.3733794476        1.3260151574  W2        185             0.0000000000
       556       186  TIP3      OH2           -30.4617586291      -18.8200094476        6.0477951574  W2        186             0.0000000000
       557       186  TIP3      H1            -31.2825086291      -18.6453594476        5.5872651574  W2        186             0.0000000000
       558       186  TIP3      H2            -30.7139786291      -18.8935394476        6.9682351574  W2        186             0.0000000000
       559       187  TIP3      OH2           -27.5074686291      -17.8458894476        2.3061951574  W2        187             0.0000000000
       560       187  TIP3      H1            -27.9323586291      -17.0360394476        2.0236551574  W2        187             0.0000000000
       561       187  TIP3      H2            -26.6031886291      -17.7604794476        2.0041751574  W2        187             0.0000000000
       562       188  TIP3      OH2           -23.1963286291      -16.4468894476        5.2655651574  W2        188             0.0000000000
       563       188  TIP3      H1            -23.0115786291      -16.7802794476        6.1435951574  W2        188             0.0000000000
       564       188  TIP3      H2            -22.3498786291      -16.1370294476        4.9434851574  W2        188             0.0000000000
       565       189  TIP3      OH2           -20.8512886291      -15.1609994476        4.5097051574  W2        189             0.0000000000
       566       189  TIP3      H1            -20.1743986291      -15.7937694476        4.2696251574  W2        189             0.0000000000
       567       189  TIP3      H2            -20.5294086291      -14.7599494476        5.3170351574  W2        189             0.0000000000
       568       190  TIP3      OH2           -15.9339086291      -32.5714494476        3.5892051574  W2        190             0.0000000000
       569       190  TIP3      H1            -16.7465586291      -32.2464194476        3.2016751574  W2        190             0.0000000000
       570       190  TIP3      H2            -15.7010586291      -33.3315994476        3.0561151574  W2        190             0.0000000000
       571       191  TIP3      OH2           -30.1057986291      -14.5894994476        2.3537251574  W2        191             0.0000000000
       572       191  TIP3      H1            -30.8261586291      -14.1493994476        1.9024951574  W2        191             0.0000000000
       573       191  TIP3      H2            -30.4713986291      -14.8400294476        3.2021251574  W2        191             0.0000000000
       574       192  TIP3      OH2           -27.6385386291      -14.9891094476        1.3834451574  W2        192             0.0000000000
       575       192  TIP3      H1            -28.5033186291      -14.9172594476        1.7874551574  W2        192             0.0000000000
       576       192  TIP3      H2            -27.6936386291      -14.4423794476        0.5996951574  W2        192             0.0000000000
       577       193  TIP3      OH2           -22.9279786291      -15.1012194476        0.5590451574  W2        193             0.0000000000
       578       193  TIP3      H1            -23.3845786291      -14.5722494476       -0.0951148426  W2        193             0.0000000000
       579       193  TIP3      H2            -22.7651786291      -14.4980794476        1.2842751574  W2        193             0.0000000000
       580       194  TIP3      OH2           -20.6003486291      -16.2232594476        1.5040751574  W2        194             0.0000000000
       581       194  TIP3      H1            -21.5049786291      -16.0582394476        1.2382851574  W2        194             0.0000000000
       582       194  TIP3      H2            -20.1714886291      -15.3700394476        1.4384151574  W2        194             0.0000000000
       583       195  TIP3      OH2           -17.9961586291      -14.6533494476        1.7988551574  W2        195             0.0000000000
       584       195  TIP3      H1            -18.1779586291      -13.7374594476        1.5883451574  W2        195             0.0000000000
       585       195  TIP3      H2            -17.8193786291      -15.0636394476        0.9523151574  W2        195             0.0000000000
       586       196  TIP3      OH2           -30.6909886291      -15.9662494476       -0.7360948426  W2        196             0.0000000000
       587       196  TIP3      H1            -30.7093886291      -16.3917394476        0.1211351574  W2        196             0.0000000000
       588       196  TIP3      H2            -29.8861986291      -16.2847494476       -1.1448748426  W2        196             0.0000000000
       589       197  TIP3      OH2           -28.5496786291      -17.2563794476       -2.0811048426  W2        197             0.0000000000
       590       197  TIP3      H1            -28.7686086291      -18.1726394476       -1.9115048426  W2        197             0.0000000000
       591       197  TIP3      H2            -27.7254586291      -17.1163394476       -1.6149648426  W2        197             0.0000000000
       592       198  TIP3      OH2           -26.0124286291      -16.7864494476       -1.2323048426  W2        198             0.0000000000
       593       198  TIP3      H1            -25.7998586291      -17.6745494476       -1.5192148426  W2        198             0.0000000000
       594       198  TIP3      H2            -25.9479186291      -16.8206794476       -0.2779048426  W2        198             0.0000000000
       595       199  TIP3      OH2           -22.5040586291      -31.1223894476       -2.0879748426  W2        199             0.0000000000
       596       199  TIP3      H1            -23.1783786291      -31.7518294476       -1.8323948426  W2        199             0.0000000000
       597       199  TIP3      H2            -21.9401386291      -31.6064994476       -2.6911848426  W2        199             0.0000000000
       598       200  TIP3      OH2           -17.3613386291      -33.0149894476       -1.9752648426  W2        200             0.0000000000
       599       200  TIP3      H1            -16.7575786291      -32.4674494476       -2.4771648426  W2        200             0.0000000000
       600       200  TIP3      H2            -18.2311386291      -32.6959494476       -2.2158548426  W2        200             0.0000000000
       601       201  TIP3      OH2           -15.6342986291      -31.8761194476       -3.6421748426  W2        201             0.0000000000
       602       201  TIP3      H1            -15.0225486291      -32.3905494476       -4.1688148426  W2        201             0.0000000000
       603       201  TIP3      H2            -15.2519586291      -30.9989094476       -3.6187348426  W2        201             0.0000000000
       604       202  TIP3      OH2           -30.1773086291      -32.4883594476       -4.2659848426  W2        202             0.0000000000
       605       202  TIP3      H1            -30.9543286291      -32.7228694476       -4.7733948426  W2        202             0.0000000000
       606       202  TIP3      H2            -29.6469486291      -33.2851494476       -4.2571848426  W2        202             0.0000000000
       607       203  TIP3      OH2           -31.3409686291      -32.6905494476       -8.4623748426  W2        203             0.0000000000
       608       203  TIP3      H1            -30.9018986291      -32.0794994476       -9.0540248426  W2        203             0.0000000000
       609       203  TIP3      H2            -31.9747286291      -32.1521394476       -7.9883748426  W2        203             0.0000000000
       610       204  TIP3      OH2           -25.5980486291      -32.5616494476       -4.4526748426  W2        204             0.0000000000
       611       204  TIP3      H1            -24.7237086291      -32.1732194476       -4.4822448426  W2        204             0.0000000000
       612       204  TIP3      H2            -25.7339686291      -32.7768694476       -3.5299548426  W2        204             0.0000000000
       613       205  TIP3      OH2           -20.0412086291      -32.5316694476       -2.8035048426  W2        205             0.0000000000
       614       205  TIP3      H1            -19.9650486291      -32.4365094476       -3.7529048426  W2        205             0.0000000000
       615       205  TIP3      H2            -20.3162886291      -33.4393794476       -2.6745948426  W2        205             0.0000000000
       616       206  TIP3      OH2           -18.6879486291      -32.5058894476       -7.1110048426  W2        206             0.0000000000
       617       206  TIP3      H1            -19.3908386291      -31.8909694476       -7.3208648426  W2        206             0.0000000000
       618       206  TIP3      H2            -19.1328086291      -33.3432194476       -6.9799148426  W2        206             0.0000000000
       619       207  TIP3      OH2           -31.4400186291      -16.7423294476       -7.5648648426  W2        207             0.0000000000
       620       207  TIP3      H1            -32.1250286291      -16.7804394476       -8.2323548426  W2        207             0.0000000000
       621       207  TIP3      H2            -31.4362986291      -15.8295694476       -7.2766548426  W2        207             0.0000000000
       622       208  TIP3      OH2           -29.4800586291      -30.7743994476      -10.0199648426  W2        208             0.0000000000
       623       208  TIP3      H1            -28.9887186291      -31.4041594476      -10.5474148426  W2        208             0.0000000000
       624       208  TIP3      H2            -28.8564286291      -30.4784594476       -9.3568448426  W2        208             0.0000000000
       625       209  TIP3      OH2           -24.4540486291      -30.4812494476       -7.5629148426  W2        209             0.0000000000
       626       209  TIP3      H1            -24.2759186291      -31.1279294476       -6.8800548426  W2        209             0.0000000000
       627       209  TIP3      H2            -24.5074286291      -29.6474794476       -7.0958048426  W2        209             0.0000000000
       628       210  TIP3      OH2           -22.5756686291      -15.5328394476       -9.1672448426  W2        210             0.0000000000
       629       210  TIP3      H1            -21.7096486291      -15.1660994476       -9.3454248426  W2        210             0.0000000000
       630       210  TIP3      H2            -22.8223886291      -15.9720394476       -9.9811648426  W2        210             0.0000000000
       631       211  TIP3      OH2           -15.8667086291      -15.9698094476       -6.4881348426  W2        211             0.0000000000
       632       211  TIP3      H1            -16.0609986291      -16.7175994476       -7.0531748426  W2        211             0.0000000000
       633       211  TIP3      H2            -15.9056986291      -15.2117994476       -7.0713448426  W2        211             0.0000000000
       634       212  TIP3      OH2           -30.2195086291      -31.9741694476        5.2516351574  W2        212             0.0000000000
       635       212  TIP3      H1            -30.5856886291      -32.7399094476        5.6941051574  W2        212             0.0000000000
       636       212  TIP3      H2            -29.3066586291      -31.9451494476        5.5381451574  W2        212             0.0000000000
       637       213  TIP3      OH2           -28.2464286291      -32.6237294476        6.7873451574  W2        213             0.0000000000
       638       213  TIP3      H1            -27.3480686291      -32.8977094476        6.6026851574  W2        213             0.0000000000
       639       213  TIP3      H2            -28.6331186291      -33.3661294476        7.2516051574  W2        213             0.0000000000
       640       214  TIP3      OH2           -29.6218986291      -15.8222494476      -10.5396548426  W2        214             0.0000000000
       641       214  TIP3      H1            -29.8894386291      -15.5359594476       -9.6663448426  W2        214             0.0000000000
       642       214  TIP3      H2            -28.8506386291      -16.3683294476      -10.3874048426  W2        214             0.0000000000
       643       215  TIP3      OH2           -19.8251986291      -33.2911994476        6.9696251574  W2        215             0.0000000000
       644       215  TIP3      H1            -19.7484786291      -33.7171294476        7.8233951574  W2        215             0.0000000000
       645       215  TIP3      H2            -18.9315386291      -33.2777294476        6.6269751574  W2        215             0.0000000000
       646       216  TIP3      OH2           -16.6490886291      -17.2185694476        5.6620451574  W2        216             0.0000000000
       647       216  TIP3      H1            -17.4308986291      -17.4047694476        5.1421051574  W2        216             0.0000000000
       648       216  TIP3      H2            -16.7210986291      -16.2891394476        5.8792951574  W2        216             0.0000000000
       649       217  TIP3      OH2            -2.2430486291      -23.3321294476       -4.3072348426  W2        217             0.0000000000
       650       217  TIP3      H1             -2.1539386291      -22.3883094476       -4.4395248426  W2        217             0.0000000000
       651       217  TIP3      H2             -2.8812886291      -23.6074894476       -4.9652948426  W2        217             0.0000000000
       652       218  TIP3      OH2            -3.3099186291      -24.0770594476       -0.8884148426  W2        218             0.0000000000
       653       218  TIP3      H1             -3.3481686291      -24.7234294476       -0.1834548426  W2        218             0.0000000000
       654       218  TIP3      H2             -3.6322686291      -24.5436194476       -1.6595448426  W2        218             0.0000000000
       655       219  TIP3      OH2           -10.9414186291      -24.4628494476        0.7045751574  W2        219             0.0000000000
       656       219  TIP3      H1            -10.9002086291      -25.0885194476        1.4278151574  W2        219             0.0000000000
       657       219  TIP3      H2            -10.2386486291      -23.8389894476        0.8866151574  W2        219             0.0000000000
       658       220  TIP3      OH2             0.3961013709      -21.1380194476       -2.5869048426  W2        220             0.0000000000
       659       220  TIP3      H1             -0.0446286291      -21.8584194476       -2.1363448426  W2        220             0.0000000000
       660       220  TIP3      H2              0.3830713709      -20.4172994476       -1.9571348426  W2        220             0.0000000000
       661       221  TIP3      OH2           -10.0181086291      -20.0129594476       -0.7605148426  W2        221             0.0000000000
       662       221  TIP3      H1            -10.3875886291      -20.8149094476       -1.1300848426  W2        221             0.0000000000
       663       221  TIP3      H2             -9.0769986291      -20.1814694476       -0.7141748426  W2        221             0.0000000000
       664       222  TIP3      OH2           -13.4080586291      -26.3526994476       -5.3676348426  W2        222             0.0000000000
       665       222  TIP3      H1            -13.8557186291      -25.5068294476       -5.3859848426  W2        222             0.0000000000
       666       222  TIP3      H2            -13.9689386291      -26.9322794476       -5.8831248426  W2        222             0.0000000000
       667       223  TIP3      OH2           -12.6974486291      -24.1907394476       -3.2418348426  W2        223             0.0000000000
       668       223  TIP3      H1            -12.4840986291      -24.9605794476       -2.7145348426  W2        223             0.0000000000
       669       223  TIP3      H2            -11.9596886291      -24.1010694476       -3.8450748426  W2        223             0.0000000000
       670       224  TIP3      OH2            -2.4923486291      -16.0338494476       -2.3748648426  W2        224             0.0000000000
       671       224  TIP3      H1             -1.8727086291      -16.7103794476       -2.6479448426  W2        224             0.0000000000
       672       224  TIP3      H2             -2.7006086291      -16.2517694476       -1.4663748426  W2        224             0.0000000000
       673       225  TIP3      OH2            -4.9204786291      -21.6449194476       -0.4823148426  W2        225             0.0000000000
       674       225  TIP3      H1             -4.6166886291      -22.3307794476       -1.0769048426  W2        225             0.0000000000
       675       225  TIP3      H2             -4.1990786291      -21.5260494476        0.1354851574  W2        225             0.0000000000
       676       226  TIP3      OH2             3.7425013709      -30.0433894476        0.3783051574  W2        226             0.0000000000
       677       226  TIP3      H1              3.7917213709      -29.4332694476        1.1142151574  W2        226             0.0000000000
       678       226  TIP3      H2              4.1680113709      -29.5822994476       -0.3445848426  W2        226             0.0000000000
       679       227  TIP3      OH2            -1.7797786291      -27.2506794476       -0.1548348426  W2        227             0.0000000000
       680       227  TIP3      H1             -1.6371886291      -28.1969794476       -0.1346748426  W2        227             0.0000000000
       681       227  TIP3      H2             -1.8858786291      -27.0436994476       -1.0833448426  W2        227             0.0000000000
       682       228  TIP3      OH2            -8.6249486291      -29.1490394476       -2.8823548426  W2        228             0.0000000000
       683       228  TIP3      H1             -8.5818386291      -28.2891894476       -3.3007248426  W2        228             0.0000000000
       684       228  TIP3      H2             -9.0825386291      -29.7015694476       -3.5160348426  W2        228             0.0000000000
       685       229  TIP3      OH2            -0.9026786291      -29.0184794476       -4.4815248426  W2        229             0.0000000000
       686       229  TIP3      H1             -0.2562486291      -29.3471594476       -3.8567648426  W2        229             0.0000000000
       687       229  TIP3      H2             -0.3927386291      -28.5005794476       -5.1043848426  W2        229             0.0000000000
       688       230  TIP3      OH2           -12.0047986291      -26.7524594476       -2.1202148426  W2        230             0.0000000000
       689       230  TIP3      H1            -11.3511386291      -27.3022894476       -1.6882048426  W2        230             0.0000000000
       690       230  TIP3      H2            -11.9808686291      -27.0265594476       -3.0370148426  W2        230             0.0000000000
       691       231  TIP3      OH2            -6.8483486291      -25.2023294476       -2.9050648426  W2        231             0.0000000000
       692       231  TIP3      H1             -6.2322486291      -25.7287894476       -2.3956648426  W2        231             0.0000000000
       693       231  TIP3      H2             -7.4344686291      -25.8424594476       -3.3087048426  W2        231             0.0000000000
       694       232  TIP3      OH2             4.1339613709      -28.5654694476        2.6142851574  W2        232             0.0000000000
       695       232  TIP3      H1              3.4454213709      -27.9073994476        2.5189451574  W2        232             0.0000000000
       696       232  TIP3      H2              4.1494213709      -28.7626794476        3.5508251574  W2        232             0.0000000000
       697       233  TIP3      OH2            -9.8147586291      -30.2311994476        1.1917251574  W2        233             0.0000000000
       698       233  TIP3      H1            -10.0335886291      -29.7011394476        0.4253251574  W2        233             0.0000000000
       699       233  TIP3      H2            -10.4826686291      -30.0046494476        1.8388651574  W2        233             0.0000000000
       700       234  TIP3      OH2            -2.4457786291      -20.7310894476       -5.2643648426  W2        234             0.0000000000
       701       234  TIP3      H1             -2.7412686291      -21.0538594476       -6.1156748426  W2        234             0.0000000000
       702       234  TIP3      H2             -2.7699986291      -19.8314194476       -5.2231048426  W2        234             0.0000000000
       703       235  TIP3      OH2            -7.2456186291      -22.5556294476        1.4790951574  W2        235             0.0000000000
       704       235  TIP3      H1             -7.9857086291      -21.9574794476        1.5826151574  W2        235             0.0000000000
       705       235  TIP3      H2             -6.5316686291      -22.0016694476        1.1634551574  W2        235             0.0000000000
       706       236  TIP3      OH2             0.8611613709      -29.7275494476       -2.5009348426  W2        236             0.0000000000
       707       236  TIP3      H1              0.6459613709      -30.4932094476       -1.9683348426  W2        236             0.0000000000
       708       236  TIP3      H2              1.5169013709      -29.2550894476       -1.9880848426  W2        236             0.0000000000
       709       237  TIP3      OH2           -10.2210286291      -28.3390194476       -0.8560548426  W2        237             0.0000000000
       710       237  TIP3      H1             -9.6073986291      -27.7062594476       -0.4828148426  W2        237             0.0000000000
       711       237  TIP3      H2             -9.7089586291      -28.8115194476       -1.5123648426  W2        237             0.0000000000
       712       238  TIP3      OH2            -8.8381886291      -20.5913294476        2.2662451574  W2        238             0.0000000000
       713       238  TIP3      H1             -8.8434286291      -19.7119794476        1.8881751574  W2        238             0.0000000000
       714       238  TIP3      H2             -9.6917786291      -20.6749194476        2.6912351574  W2        238             0.0000000000
       715       239  TIP3      OH2           -12.7170986291      -20.9205394476       -6.9518248426  W2        239             0.0000000000
       716       239  TIP3      H1            -12.9890086291      -20.6914394476       -7.8405348426  W2        239             0.0000000000
       717       239  TIP3      H2            -12.6715286291      -20.0826594476       -6.4912948426  W2        239             0.0000000000
       718       240  TIP3      OH2             0.9078713709      -19.2989494476       -0.2389748426  W2        240             0.0000000000
       719       240  TIP3      H1             -0.0337586291      -19.2405594476       -0.0772848426  W2        240             0.0000000000
       720       240  TIP3      H2              1.1844813709      -18.3928994476       -0.3760048426  W2        240             0.0000000000
       721       241  TIP3      OH2             1.2085713709      -31.0124194476        1.1784151574  W2        241             0.0000000000
       722       241  TIP3      H1              0.4724913709      -30.4017094476        1.1405451574  W2        241             0.0000000000
       723       241  TIP3      H2              1.8919713709      -30.5975194476        0.6520551574  W2        241             0.0000000000
       724       242  TIP3      OH2            -5.7882886291      -32.9256894476       -1.3557848426  W2        242             0.0000000000
       725       242  TIP3      H1             -5.9058686291      -33.8740894476       -1.4099548426  W2        242             0.0000000000
       726       242  TIP3      H2             -6.6432786291      -32.5930794476       -1.0826748426  W2        242             0.0000000000
       727       243  TIP3      OH2            -0.8400086291      -17.5175994476       -3.6138148426  W2        243             0.0000000000
       728       243  TIP3      H1             -0.4147786291      -18.2248094476       -4.0988548426  W2        243             0.0000000000
       729       243  TIP3      H2             -0.5230086291      -16.7163294476       -4.0305948426  W2        243             0.0000000000
       730       244  TIP3      OH2             0.3196413709      -19.6167494476       -5.1051548426  W2        244             0.0000000000
       731       244  TIP3      H1              0.0621213709      -20.3067394476       -5.7165648426  W2        244             0.0000000000
       732       244  TIP3      H2              0.3907213709      -20.0596294476       -4.2595648426  W2        244             0.0000000000
       733       245  TIP3      OH2             2.0056613709      -21.0500794476        3.3721951574  W2        245             0.0000000000
       734       245  TIP3      H1              2.1452913709      -21.6418294476        2.6328951574  W2        245             0.0000000000
       735       245  TIP3      H2              2.1729413709      -20.1774894476        3.0160751574  W2        245             0.0000000000
       736       246  TIP3      OH2            -3.5217986291      -24.0881294476       -6.8552048426  W2        246             0.0000000000
       737       246  TIP3      H1             -4.2332486291      -23.5531594476       -7.2071548426  W2        246             0.0000000000
       738       246  TIP3      H2             -2.8308386291      -24.0329194476       -7.5153148426  W2        246             0.0000000000
       739       247  TIP3      OH2            -3.4678786291      -25.6306994476       -9.8167048426  W2        247             0.0000000000
       740       247  TIP3      H1             -2.7668886291      -25.6080094476       -9.1653048426  W2        247             0.0000000000
       741       247  TIP3      H2             -3.1655886291      -26.2587294476      -10.4727748426  W2        247             0.0000000000
       742       248  TIP3      OH2             3.8475913709      -24.7102794476        1.4382351574  W2        248             0.0000000000
       743       248  TIP3      H1              3.1950013709      -24.0157194476        1.5273251574  W2        248             0.0000000000
       744       248  TIP3      H2              4.3126213709      -24.5001894476        0.6283951574  W2        248             0.0000000000
       745       249  TIP3      OH2            -0.1160286291      -23.8787994476       -5.9036148426  W2        249             0.0000000000
       746       249  TIP3      H1             -0.8479286291      -23.6504294476       -5.3305548426  W2        249             0.0000000000
       747       249  TIP3      H2              0.3311913709      -24.5925294476       -5.4488648426  W2        249             0.0000000000
       748       250  TIP3      OH2            -0.2186786291      -25.7045394476        3.1640851574  W2        250             0.0000000000
       749       250  TIP3      H1             -0.1387686291      -24.9410994476        3.7359351574  W2        250             0.0000000000
       750       250  TIP3      H2             -0.8199086291      -25.4252994476        2.4735951574  W2        250             0.0000000000
       751       251  TIP3      OH2            -8.4706586291      -23.2481794476       -4.0211148426  W2        251             0.0000000000
       752       251  TIP3      H1             -8.8011386291      -23.6188394476       -4.8394148426  W2        251             0.0000000000
       753       251  TIP3      H2             -7.8822486291      -23.9187794476       -3.6742848426  W2        251             0.0000000000
       754       252  TIP3      OH2            -7.1039086291      -19.8201194476       -1.3398948426  W2        252             0.0000000000
       755       252  TIP3      H1             -7.1987786291      -20.3988094476       -2.0964348426  W2        252             0.0000000000
       756       252  TIP3      H2             -6.3745486291      -20.1915494476       -0.8436148426  W2        252             0.0000000000
       757       253  TIP3      OH2            -8.1041086291      -24.4796194476       -0.3876148426  W2        253             0.0000000000
       758       253  TIP3      H1             -7.5388586291      -24.3581994476       -1.1504948426  W2        253             0.0000000000
       759       253  TIP3      H2             -7.7852186291      -23.8421194476        0.2512351574  W2        253             0.0000000000
       760       254  TIP3      OH2            -1.7948886291      -18.9764294476        0.3464351574  W2        254             0.0000000000
       761       254  TIP3      H1             -2.0352286291      -18.3141194476        0.9943551574  W2        254             0.0000000000
       762       254  TIP3      H2             -1.9930686291      -19.8109094476        0.7713951574  W2        254             0.0000000000
       763       255  TIP3      OH2            -7.2240386291      -20.0803494476        4.3295751574  W2        255             0.0000000000
       764       255  TIP3      H1             -7.5352886291      -19.2980294476        4.7848951574  W2        255             0.0000000000
       765       255  TIP3      H2             -7.8740186291      -20.2334394476        3.6437751574  W2        255             0.0000000000
       766       256  TIP3      OH2            -1.2450786291      -24.7165094476       -8.2184948426  W2        256             0.0000000000
       767       256  TIP3      H1             -0.6655286291      -24.5664794476       -7.4716048426  W2        256             0.0000000000
       768       256  TIP3      H2             -0.8310786291      -24.2457694476       -8.9418548426  W2        256             0.0000000000
       769       257  TIP3      OH2           -10.3040486291      -23.8822394476        3.5581451574  W2        257             0.0000000000
       770       257  TIP3      H1            -10.2337286291      -23.2315594476        4.2566451574  W2        257             0.0000000000
       771       257  TIP3      H2            -11.1948286291      -23.7794894476        3.2232351574  W2        257             0.0000000000
       772       258  TIP3      OH2            -3.5185886291      -17.9796594476       -4.7831848426  W2        258             0.0000000000
       773       258  TIP3      H1             -3.0448286291      -17.6840294476       -4.0057648426  W2        258             0.0000000000
       774       258  TIP3      H2             -4.0816586291      -17.2414994476       -5.0162248426  W2        258             0.0000000000
       775       259  TIP3      OH2            -8.9844486291      -18.0088494476        5.0929551574  W2        259             0.0000000000
       776       259  TIP3      H1             -8.9769186291      -18.1448794476        4.1455051574  W2        259             0.0000000000
       777       259  TIP3      H2             -9.9004086291      -18.1260394476        5.3449551574  W2        259             0.0000000000
       778       260  TIP3      OH2             2.4537613709      -32.9664694476       -8.4055248426  W2        260             0.0000000000
       779       260  TIP3      H1              1.5538313709      -32.8275694476       -8.1104648426  W2        260             0.0000000000
       780       260  TIP3      H2              2.7056013709      -32.1350094476       -8.8073548426  W2        260             0.0000000000
       781       261  TIP3      OH2            -9.4803886291      -24.1787494476       -6.4318348426  W2        261             0.0000000000
       782       261  TIP3      H1             -9.7722586291      -23.4105794476       -6.9227048426  W2        261             0.0000000000
       783       261  TIP3      H2            -10.1548686291      -24.8381294476       -6.5946948426  W2        261             0.0000000000
       784       262  TIP3      OH2             3.6429013709      -18.6002294476      -10.0291348426  W2        262             0.0000000000
       785       262  TIP3      H1              3.7162513709      -17.6612094476       -9.8586048426  W2        262             0.0000000000
       786       262  TIP3      H2              4.5484113709      -18.9053694476      -10.0854048426  W2        262             0.0000000000
       787       263  TIP3      OH2           -13.3873786291      -21.8158294476        2.3831451574  W2        263             0.0000000000
       788       263  TIP3      H1            -13.8885386291      -21.8438894476        1.5681151574  W2        263             0.0000000000
       789       263  TIP3      H2            -13.3820086291      -22.7215094476        2.6928751574  W2        263             0.0000000000
       790       264  TIP3      OH2           -13.6371086291      -19.0354494476       -0.7328348426  W2        264             0.0000000000
       791       264  TIP3      H1            -12.6910486291      -19.1797494476       -0.7518848426  W2        264             0.0000000000
       792       264  TIP3      H2            -13.7494786291      -18.2511694476       -0.1957148426  W2        264             0.0000000000
       793       265  TIP3      OH2             4.5607413709      -18.3694794476        4.9495351574  W2        265             0.0000000000
       794       265  TIP3      H1              4.5114213709      -19.3246694476        4.9122951574  W2        265             0.0000000000
       795       265  TIP3      H2              3.7339713709      -18.1019494476        5.3509151574  W2        265             0.0000000000
       796       266  TIP3      OH2            -4.4608586291      -18.7955594476        3.8256751574  W2        266             0.0000000000
       797       266  TIP3      H1             -4.3733986291      -17.9690994476        4.3005851574  W2        266             0.0000000000
       798       266  TIP3      H2             -5.3243486291      -19.1251794476        4.0746051574  W2        266             0.0000000000
       799       267  TIP3      OH2            -4.0462786291      -15.0231894476       -6.3682648426  W2        267             0.0000000000
       800       267  TIP3      H1             -4.1216786291      -15.1444694476       -7.3147448426  W2        267             0.0000000000
       801       267  TIP3      H2             -4.0134086291      -14.0739194476       -6.2498048426  W2        267             0.0000000000
       802       268  TIP3      OH2           -10.3928986291      -16.2344894476       -4.5873648426  W2        268             0.0000000000
       803       268  TIP3      H1            -10.2408586291      -16.5824494476       -3.7087148426  W2        268             0.0000000000
       804       268  TIP3      H2            -11.2438586291      -16.5907594476       -4.8426448426  W2        268             0.0000000000
       805       269  TIP3      OH2            -0.9446786291      -15.8691694476       -9.3660248426  W2        269             0.0000000000
       806       269  TIP3      H1             -0.5698386291      -16.6135594476       -9.8367648426  W2        269             0.0000000000
       807       269  TIP3      H2             -0.9403086291      -16.1391094476       -8.4476948426  W2        269             0.0000000000
       808       270  TIP3      OH2            -1.2758686291      -15.9434594476       -6.6168048426  W2        270             0.0000000000
       809       270  TIP3      H1             -2.2108886291      -15.8432694476       -6.4381048426  W2        270             0.0000000000
       810       270  TIP3      H2             -0.9956786291      -16.6528594476       -6.0384848426  W2        270             0.0000000000
       811       271  TIP3      OH2             1.7127213709      -26.8762294476        5.4297551574  W2        271             0.0000000000
       812       271  TIP3      H1              1.3054013709      -26.3956694476        4.7090851574  W2        271             0.0000000000
       813       271  TIP3      H2              1.7532913709      -27.7816294476        5.1218351574  W2        271             0.0000000000
       814       272  TIP3      OH2           -11.1383286291      -20.4922894476        3.4264251574  W2        272             0.0000000000
       815       272  TIP3      H1            -10.9221986291      -20.8537294476        4.2860051574  W2        272             0.0000000000
       816       272  TIP3      H2            -11.9938586291      -20.8669094476        3.2167751574  W2        272             0.0000000000
       817       273  TIP3      OH2            -8.5195286291      -32.0222394476       -0.5781548426  W2        273             0.0000000000
       818       273  TIP3      H1             -9.3811586291      -32.1094194476       -0.9858648426  W2        273             0.0000000000
       819       273  TIP3      H2             -8.5419586291      -31.1662294476       -0.1503948426  W2        273             0.0000000000
       820       274  TIP3      OH2            -3.8567486291      -32.3001994476        2.7965451574  W2        274             0.0000000000
       821       274  TIP3      H1             -3.4364386291      -32.7154894476        3.5496051574  W2        274             0.0000000000
       822       274  TIP3      H2             -4.7897886291      -32.4788694476        2.9137451574  W2        274             0.0000000000
       823       275  TIP3      OH2            -0.5302586291      -28.5446794476        3.6499951574  W2        275             0.0000000000
       824       275  TIP3      H1             -1.0443086291      -28.6704594476        4.4475951574  W2        275             0.0000000000
       825       275  TIP3      H2             -0.6857886291      -27.6323694476        3.4056151574  W2        275             0.0000000000
       826       276  TIP3      OH2             0.2322313709      -23.6836794476      -10.5887048426  W2        276             0.0000000000
       827       276  TIP3      H1              0.2743113709      -23.9062894476      -11.5187048426  W2        276             0.0000000000
       828       276  TIP3      H2              1.0814413709      -23.2849694476      -10.3987148426  W2        276             0.0000000000
       829       277  TIP3      OH2            -4.1950186291      -29.8078594476       -9.9183748426  W2        277             0.0000000000
       830       277  TIP3      H1             -4.4485386291      -29.7886994476       -8.9955648426  W2        277             0.0000000000
       831       277  TIP3      H2             -4.4518086291      -30.6793194476      -10.2197548426  W2        277             0.0000000000
       832       278  TIP3      OH2            -8.4285186291      -27.0567894476        0.5168651574  W2        278             0.0000000000
       833       278  TIP3      H1             -9.0703086291      -27.0970594476        1.2258751574  W2        278             0.0000000000
       834       278  TIP3      H2             -8.3913186291      -26.1303194476        0.2791651574  W2        278             0.0000000000
       835       279  TIP3      OH2            -8.4316086291      -26.8357794476       -4.5711348426  W2        279             0.0000000000
       836       279  TIP3      H1             -9.3243186291      -27.1761694476       -4.6297548426  W2        279             0.0000000000
       837       279  TIP3      H2             -7.9809486291      -27.2126894476       -5.3268148426  W2        279             0.0000000000
       838       280  TIP3      OH2            -2.8960586291      -26.4197494476       -5.7540548426  W2        280             0.0000000000
       839       280  TIP3      H1             -3.3050286291      -25.6048894476       -6.0455748426  W2        280             0.0000000000
       840       280  TIP3      H2             -2.1754386291      -26.5597394476       -6.3683448426  W2        280             0.0000000000
       841       281  TIP3      OH2            -3.7938986291      -26.2441094476        5.7340151574  W2        281             0.0000000000
       842       281  TIP3      H1             -4.3565186291      -26.9489494476        6.0547951574  W2        281             0.0000000000
       843       281  TIP3      H2             -2.9675586291      -26.3649194476        6.2017751574  W2        281             0.0000000000
       844       282  TIP3      OH2            -1.8912886291      -26.9737094476       -2.9400848426  W2        282             0.0000000000
       845       282  TIP3      H1             -2.0868386291      -26.3680294476       -3.6550248426  W2        282             0.0000000000
       846       282  TIP3      H2             -1.7100286291      -27.8071894476       -3.3744548426  W2        282             0.0000000000
       847       283  TIP3      OH2           -10.6784686291      -26.7364394476        2.3840651574  W2        283             0.0000000000
       848       283  TIP3      H1            -10.7165286291      -26.3362794476        3.2527751574  W2        283             0.0000000000
       849       283  TIP3      H2            -11.1693586291      -27.5531994476        2.4743551574  W2        283             0.0000000000
       850       284  TIP3      OH2            -7.3127286291      -29.3622094476      -10.8173348426  W2        284             0.0000000000
       851       284  TIP3      H1             -7.7436586291      -29.8071994476      -10.0875948426  W2        284             0.0000000000
       852       284  TIP3      H2             -8.0308586291      -28.9905794476      -11.3295848426  W2        284             0.0000000000
       853       285  TIP3      OH2           -14.0703886291      -29.6202594476       -3.7654648426  W2        285             0.0000000000
       854       285  TIP3      H1            -13.4396186291      -29.6490494476       -3.0460748426  W2        285             0.0000000000
       855       285  TIP3      H2            -13.6209586291      -30.0453894476       -4.4958748426  W2        285             0.0000000000
       856       286  TIP3      OH2           -12.7961786291      -28.8740594476       -8.3414248426  W2        286             0.0000000000
       857       286  TIP3      H1            -12.3220086291      -28.2830694476       -8.9263348426  W2        286             0.0000000000
       858       286  TIP3      H2            -13.5135386291      -28.3437694476       -7.9944148426  W2        286             0.0000000000
       859       287  TIP3      OH2            -2.6273686291      -25.3355794476        1.7311551574  W2        287             0.0000000000
       860       287  TIP3      H1             -2.3038886291      -25.9666094476        1.0882051574  W2        287             0.0000000000
       861       287  TIP3      H2             -3.0674386291      -25.8703594476        2.3918951574  W2        287             0.0000000000
       862       288  TIP3      OH2            -5.8500786291      -29.4080294476       -3.4847248426  W2        288             0.0000000000
       863       288  TIP3      H1             -6.7609686291      -29.3513494476       -3.1961248426  W2        288             0.0000000000
       864       288  TIP3      H2             -5.3447886291      -29.4684794476       -2.6740048426  W2        288             0.0000000000
       865       289  TIP3      OH2           -11.0217386291      -27.7793994476       -4.6579648426  W2        289             0.0000000000
       866       289  TIP3      H1            -11.9109386291      -27.6798494476       -4.9980048426  W2        289             0.0000000000
       867       289  TIP3      H2            -10.7252486291      -28.6210994476       -5.0041748426  W2        289             0.0000000000
       868       290  TIP3      OH2            -7.3685586291      -27.7791394476       -7.0015048426  W2        290             0.0000000000
       869       290  TIP3      H1             -6.4370086291      -27.6501394476       -6.8231948426  W2        290             0.0000000000
       870       290  TIP3      H2             -7.5835286291      -27.1097094476       -7.6510348426  W2        290             0.0000000000
       871       291  TIP3      OH2            -1.4448886291      -30.1733994476       -0.2205448426  W2        291             0.0000000000
       872       291  TIP3      H1             -2.1217286291      -30.0420894476        0.4434251574  W2        291             0.0000000000
       873       291  TIP3      H2             -1.9303986291      -30.3284494476       -1.0307748426  W2        291             0.0000000000
       874       292  TIP3      OH2            -8.6945386291      -26.5849194476       -9.4348948426  W2        292             0.0000000000
       875       292  TIP3      H1             -9.2370286291      -26.9645394476      -10.1261348426  W2        292             0.0000000000
       876       292  TIP3      H2             -7.8610486291      -26.3904494476       -9.8634848426  W2        292             0.0000000000
       877       293  TIP3      OH2             1.8426213709      -14.5018594476        6.0562151574  W2        293             0.0000000000
       878       293  TIP3      H1              2.0424913709      -14.0776694476        5.2217451574  W2        293             0.0000000000
       879       293  TIP3      H2              2.4979913709      -14.1580394476        6.6632551574  W2        293             0.0000000000
       880       294  TIP3      OH2           -10.5593986291      -22.0277294476        5.6642651574  W2        294             0.0000000000
       881       294  TIP3      H1             -9.8271586291      -21.7731394476        6.2257151574  W2        294             0.0000000000
       882       294  TIP3      H2            -11.3395286291      -21.8231894476        6.1798051574  W2        294             0.0000000000
       883       295  TIP3      OH2            -4.5301086291      -26.6207294476       -1.5977648426  W2        295             0.0000000000
       884       295  TIP3      H1             -3.9657686291      -27.1670694476       -2.1448048426  W2        295             0.0000000000
       885       295  TIP3      H2             -4.6777686291      -27.1425394476       -0.8090048426  W2        295             0.0000000000
       886       296  TIP3      OH2            -9.5281386291      -30.4841194476       -5.1792848426  W2        296             0.0000000000
       887       296  TIP3      H1             -9.8451886291      -31.3865894476       -5.2147448426  W2        296             0.0000000000
       888       296  TIP3      H2             -8.7467286291      -30.4823794476       -5.7321248426  W2        296             0.0000000000
       889       297  TIP3      OH2            -5.9035186291      -28.2321194476        0.8162751574  W2        297             0.0000000000
       890       297  TIP3      H1             -6.7389886291      -27.7781694476        0.9265151574  W2        297             0.0000000000
       891       297  TIP3      H2             -5.3794586291      -27.9562694476        1.5682651574  W2        297             0.0000000000
       892       298  TIP3      OH2            -5.3592586291      -22.0193494476       -7.4990848426  W2        298             0.0000000000
       893       298  TIP3      H1             -6.1041586291      -22.5268194476       -7.8212948426  W2        298             0.0000000000
       894       298  TIP3      H2             -5.4935386291      -21.9705494476       -6.5526048426  W2        298             0.0000000000
       895       299  TIP3      OH2             1.7906313709      -22.8865294476        1.2876751574  W2        299             0.0000000000
       896       299  TIP3      H1              2.4325113709      -22.4298994476        0.7438951574  W2        299             0.0000000000
       897       299  TIP3      H2              0.9603213709      -22.7732894476        0.8250851574  W2        299             0.0000000000
       898       300  TIP3      OH2            -1.4615786291      -29.2053594476       -9.2998248426  W2        300             0.0000000000
       899       300  TIP3      H1             -2.4001586291      -29.0937994476       -9.4509448426  W2        300             0.0000000000
       900       300  TIP3      H2             -1.1643686291      -28.3486694476       -8.9932548426  W2        300             0.0000000000
       901       301  TIP3      OH2            -3.8400486291      -21.8350194476        3.7378251574  W2        301             0.0000000000
       902       301  TIP3      H1             -4.1854386291      -22.2167794476        4.5447851574  W2        301             0.0000000000
       903       301  TIP3      H2             -4.0400386291      -20.9016594476        3.8091151574  W2        301             0.0000000000
       904       302  TIP3      OH2            -0.7432286291      -27.3380894476       -7.6390848426  W2        302             0.0000000000
       905       302  TIP3      H1              0.1486713709      -27.4755894476       -7.3199648426  W2        302             0.0000000000
       906       302  TIP3      H2             -0.6868686291      -26.5474794476       -8.1757348426  W2        302             0.0000000000
       907       303  TIP3      OH2           -10.2344286291      -22.7243494476       -1.7292948426  W2        303             0.0000000000
       908       303  TIP3      H1             -9.4897086291      -22.7267794476       -2.3306448426  W2        303             0.0000000000
       909       303  TIP3      H2            -10.1567686291      -23.5479694476       -1.2477848426  W2        303             0.0000000000
       910       304  TIP3      OH2            -3.2338486291      -20.5609194476       -8.4736248426  W2        304             0.0000000000
       911       304  TIP3      H1             -3.5290086291      -19.7341294476       -8.0921448426  W2        304             0.0000000000
       912       304  TIP3      H2             -3.9368486291      -21.1802294476       -8.2774848426  W2        304             0.0000000000
       913       305  TIP3      OH2           -13.2264586291      -24.2636594476        3.5855551574  W2        305             0.0000000000
       914       305  TIP3      H1            -13.0035986291      -24.6816994476        4.4173051574  W2        305             0.0000000000
       915       305  TIP3      H2            -13.8284486291      -24.8761594476        3.1628351574  W2        305             0.0000000000
       916       306  TIP3      OH2            -6.2099686291      -24.7466694476        5.7985251574  W2        306             0.0000000000
       917       306  TIP3      H1             -6.5058886291      -24.9123694476        4.9034351574  W2        306             0.0000000000
       918       306  TIP3      H2             -5.2784486291      -24.9666394476        5.7879151574  W2        306             0.0000000000
       919       307  TIP3      OH2            -1.5896886291      -19.3734694476        3.6883251574  W2        307             0.0000000000
       920       307  TIP3      H1             -2.4902586291      -19.1902094476        3.4207151574  W2        307             0.0000000000
       921       307  TIP3      H2             -1.5555786291      -19.1145394476        4.6092051574  W2        307             0.0000000000
       922       308  TIP3      OH2             4.1416413709      -27.1286794476       -7.9444148426  W2        308             0.0000000000
       923       308  TIP3      H1              3.5872713709      -27.5248794476       -8.6166648426  W2        308             0.0000000000
       924       308  TIP3      H2              4.2420013709      -26.2181594476       -8.2220848426  W2        308             0.0000000000
       925       309  TIP3      OH2             4.1048413709      -21.3285094476        4.8927351574  W2        309             0.0000000000
       926       309  TIP3      H1              3.2536913709      -21.0901294476        4.5253751574  W2        309             0.0000000000
       927       309  TIP3      H2              4.6951813709      -21.3451894476        4.1394451574  W2        309             0.0000000000
       928       310  TIP3      OH2             2.4368113709      -18.3426394476       -7.4792048426  W2        310             0.0000000000
       929       310  TIP3      H1              2.0639213709      -19.1682594476       -7.1701448426  W2        310             0.0000000000
       930       310  TIP3      H2              2.7141613709      -18.5256994476       -8.3768648426  W2        310             0.0000000000
       931       311  TIP3      OH2            -0.4027986291      -23.5346894476       -0.4580148426  W2        311             0.0000000000
       932       311  TIP3      H1             -1.3311086291      -23.7664994476       -0.4850848426  W2        311             0.0000000000
       933       311  TIP3      H2              0.0483113709      -24.3117094476       -0.7881348426  W2        311             0.0000000000
       934       312  TIP3      OH2            -7.8594886291      -19.2065294476       -4.3251448426  W2        312             0.0000000000
       935       312  TIP3      H1             -7.3322686291      -18.4330894476       -4.5252648426  W2        312             0.0000000000
       936       312  TIP3      H2             -8.7396386291      -18.9816094476       -4.6267448426  W2        312             0.0000000000
       937       313  TIP3      OH2           -12.1047186291      -24.3441194476       -9.7379048426  W2        313             0.0000000000
       938       313  TIP3      H1            -11.4887286291      -23.7173994476       -9.3584248426  W2        313             0.0000000000
       939       313  TIP3      H2            -12.9664586291      -24.0281394476       -9.4662548426  W2        313             0.0000000000
       940       314  TIP3      OH2            -6.4322586291      -21.5435394476       -4.7487148426  W2        314             0.0000000000
       941       314  TIP3      H1             -6.6732586291      -20.6180994476       -4.7071848426  W2        314             0.0000000000
       942       314  TIP3      H2             -7.1728986291      -22.0024094476       -4.3523248426  W2        314             0.0000000000
       943       315  TIP3      OH2            -5.9175986291      -17.3941794476        1.5663951574  W2        315             0.0000000000
       944       315  TIP3      H1             -5.5551286291      -16.5396194476        1.3328351574  W2        315             0.0000000000
       945       315  TIP3      H2             -5.3860786291      -17.6860194476        2.3070251574  W2        315             0.0000000000
       946       316  TIP3      OH2            -7.7491786291      -16.5217794476       -5.2034948426  W2        316             0.0000000000
       947       316  TIP3      H1             -8.6991286291      -16.4160394476       -5.1521648426  W2        316             0.0000000000
       948       316  TIP3      H2             -7.3973686291      -15.7010394476       -4.8587448426  W2        316             0.0000000000
       949       317  TIP3      OH2            -2.3735186291      -21.2951094476        1.2669551574  W2        317             0.0000000000
       950       317  TIP3      H1             -2.7993886291      -21.5229394476        2.0933551574  W2        317             0.0000000000
       951       317  TIP3      H2             -1.7929386291      -22.0339294476        1.0844851574  W2        317             0.0000000000
       952       318  TIP3      OH2            -0.1706286291      -20.3660594476       -9.6591448426  W2        318             0.0000000000
       953       318  TIP3      H1              0.1826813709      -20.7460794476       -8.8547948426  W2        318             0.0000000000
       954       318  TIP3      H2             -1.1192786291      -20.4595794476       -9.5722148426  W2        318             0.0000000000
       955       319  TIP3      OH2             0.2849013709      -16.7431594476        3.7364351574  W2        319             0.0000000000
       956       319  TIP3      H1             -0.3167786291      -17.2988694476        3.2410651574  W2        319             0.0000000000
       957       319  TIP3      H2              0.5662713709      -16.0761794476        3.1101751574  W2        319             0.0000000000
       958       320  TIP3      OH2             4.3328113709      -15.8868094476       -9.4581248426  W2        320             0.0000000000
       959       320  TIP3      H1              5.0766013709      -15.3007594476       -9.5979648426  W2        320             0.0000000000
       960       320  TIP3      H2              3.6386213709      -15.3182294476       -9.1248848426  W2        320             0.0000000000
       961       321  TIP3      OH2           -11.5925086291      -29.5103894476        3.1436951574  W2        321             0.0000000000
       962       321  TIP3      H1            -12.4852786291      -29.1718494476        3.0760951574  W2        321             0.0000000000
       963       321  TIP3      H2            -11.6912286291      -30.3657794476        3.5617751574  W2        321             0.0000000000
       964       322  TIP3      OH2             0.6953013709      -21.6938594476       -7.4323548426  W2        322             0.0000000000
       965       322  TIP3      H1              0.4180613709      -22.4219294476       -6.8762448426  W2        322             0.0000000000
       966       322  TIP3      H2              1.6226013709      -21.5746594476       -7.2270948426  W2        322             0.0000000000
       967       323  TIP3      OH2           -11.9413086291      -17.7059494476        1.5786351574  W2        323             0.0000000000
       968       323  TIP3      H1            -11.7242786291      -18.6377094476        1.5476051574  W2        323             0.0000000000
       969       323  TIP3      H2            -11.6949586291      -17.4314494476        2.4619151574  W2        323             0.0000000000
       970       324  TIP3      OH2            -6.0798486291      -19.2544494476      -11.2121448426  W2        324             0.0000000000
       971       324  TIP3      H1             -5.8408686291      -20.0026394476      -11.7592548426  W2        324             0.0000000000
       972       324  TIP3      H2             -6.3487186291      -19.6422794476      -10.3793648426  W2        324             0.0000000000
       973       325  TIP3      OH2            -7.1427886291      -19.6840694476       -8.7558848426  W2        325             0.0000000000
       974       325  TIP3      H1             -6.9959886291      -20.2040894476       -7.9657948426  W2        325             0.0000000000
       975       325  TIP3      H2             -7.1456186291      -18.7773094476       -8.4492948426  W2        325             0.0000000000
       976       326  TIP3      OH2           -10.6896786291      -22.4317394476       -8.2453448426  W2        326             0.0000000000
       977       326  TIP3      H1            -11.3757486291      -22.0794894476       -7.6783748426  W2        326             0.0000000000
       978       326  TIP3      H2            -10.1668886291      -21.6687794476       -8.4919148426  W2        326             0.0000000000
       979       327  TIP3      OH2            -2.8581686291      -29.7693594476        2.0335551574  W2        327             0.0000000000
       980       327  TIP3      H1             -2.1593786291      -29.6954894476        2.6835251574  W2        327             0.0000000000
       981       327  TIP3      H2             -3.2390286291      -30.6338594476        2.1878451574  W2        327             0.0000000000
       982       328  TIP3      OH2            -2.0736786291      -30.1171894476       -6.8692148426  W2        328             0.0000000000
       983       328  TIP3      H1             -1.8538486291      -29.6456494476       -7.6726748426  W2        328             0.0000000000
       984       328  TIP3      H2             -1.5152786291      -29.7229294476       -6.1991548426  W2        328             0.0000000000
       985       329  TIP3      OH2            -4.4050686291      -17.9867094476       -8.0064648426  W2        329             0.0000000000
       986       329  TIP3      H1             -5.2214586291      -17.4897394476       -7.9540348426  W2        329             0.0000000000
       987       329  TIP3      H2             -3.8754386291      -17.5113594476       -8.6465848426  W2        329             0.0000000000
       988       330  TIP3      OH2            -4.8736886291      -28.3893094476       -6.0343748426  W2        330             0.0000000000
       989       330  TIP3      H1             -4.0614286291      -27.8849894476       -5.9882048426  W2        330             0.0000000000
       990       330  TIP3      H2             -5.1183886291      -28.5343394476       -5.1204148426  W2        330             0.0000000000
       991       331  TIP3      OH2            -4.3380486291      -27.4030394476        3.1502851574  W2        331             0.0000000000
       992       331  TIP3      H1             -4.2190186291      -26.8294994476        3.9073251574  W2        331             0.0000000000
       993       331  TIP3      H2             -3.6825886291      -28.0910994476        3.2650651574  W2        331             0.0000000000
       994       332  TIP3      OH2            -3.9900186291      -31.3080094476       -5.0962648426  W2        332             0.0000000000
       995       332  TIP3      H1             -4.3366686291      -30.6909494476       -4.4518348426  W2        332             0.0000000000
       996       332  TIP3      H2             -3.3313286291      -30.8074394476       -5.5777148426  W2        332             0.0000000000
       997       333  TIP3      OH2            -7.0667586291      -16.9429894476       -8.0247748426  W2        333             0.0000000000
       998       333  TIP3      H1             -6.9058886291      -16.1432394476       -8.5255148426  W2        333             0.0000000000
       999       333  TIP3      H2             -7.2639786291      -16.6363894476       -7.1397148426  W2        333             0.0000000000
      1000       334  TIP3      OH2            -8.3323186291      -30.2450694476       -8.4090148426  W2        334             0.0000000000
      1001       334  TIP3      H1             -8.4158386291      -29.3567594476       -8.0623748426  W2        334             0.0000000000
      1002       334  TIP3      H2             -7.4422886291      -30.5103994476       -8.1773348426  W2        334             0.0000000000
      1003       335  TIP3      OH2             1.8665313709      -29.4960094476        3.9852551574  W2        335             0.0000000000
      1004       335  TIP3      H1              0.9501113709      -29.2338394476        3.8976251574  W2        335             0.0000000000
      1005       335  TIP3      H2              2.2020313709      -29.4991094476        3.0887851574  W2        335             0.0000000000
      1006       336  TIP3      OH2             0.4686313709      -25.7459094476       -1.9190148426  W2        336             0.0000000000
      1007       336  TIP3      H1             -0.3289286291      -26.1608894476       -2.2475148426  W2        336             0.0000000000
      1008       336  TIP3      H2              0.9137413709      -26.4365394476       -1.4279648426  W2        336             0.0000000000
      1009       337  TIP3      OH2           -10.0737886291      -19.8178494476       -9.3485648426  W2        337             0.0000000000
      1010       337  TIP3      H1             -9.4816386291      -19.1183694476       -9.0723248426  W2        337             0.0000000000
      1011       337  TIP3      H2             -9.6144886291      -20.2508994476      -10.0681048426  W2        337             0.0000000000
      1012       338  TIP3      OH2           -11.7578686291      -27.1535494476      -10.2326248426  W2        338             0.0000000000
      1013       338  TIP3      H1            -11.8026086291      -26.2142394476      -10.0539248426  W2        338             0.0000000000
      1014       338  TIP3      H2            -12.6455486291      -27.3890594476      -10.5024148426  W2        338             0.0000000000
      1015       339  TIP3      OH2             1.5550913709      -16.4896594476       -0.2966648426  W2        339             0.0000000000
      1016       339  TIP3      H1              1.3995213709      -15.8112194476       -0.9537348426  W2        339             0.0000000000
      1017       339  TIP3      H2              2.4877313709      -16.4177294476       -0.0936048426  W2        339             0.0000000000
      1018       340  TIP3      OH2           -10.9496686291      -32.3718894476       -1.5595248426  W2        340             0.0000000000
      1019       340  TIP3      H1            -11.1786886291      -32.3126394476       -2.4870248426  W2        340             0.0000000000
      1020       340  TIP3      H2            -11.3923286291      -33.1633394476       -1.2531148426  W2        340             0.0000000000
      1021       341  TIP3      OH2           -12.0193386291      -18.4311794476       -5.3989448426  W2        341             0.0000000000
      1022       341  TIP3      H1            -12.8514786291      -17.9589094476       -5.3718048426  W2        341             0.0000000000
      1023       341  TIP3      H2            -11.4735086291      -17.9214194476       -5.9976348426  W2        341             0.0000000000
      1024       342  TIP3      OH2           -12.7309686291      -15.8188094476        5.9308551574  W2        342             0.0000000000
      1025       342  TIP3      H1            -12.1907486291      -16.0354094476        6.6907751574  W2        342             0.0000000000
      1026       342  TIP3      H2            -13.2121686291      -16.6242094476        5.7411051574  W2        342             0.0000000000
      1027       343  TIP3      OH2            -8.1336286291      -16.8993694476        7.5512751574  W2        343             0.0000000000
      1028       343  TIP3      H1             -7.3659086291      -17.3582894476        7.8921951574  W2        343             0.0000000000
      1029       343  TIP3      H2             -8.1550086291      -17.1253894476        6.6213951574  W2        343             0.0000000000
      1030       344  TIP3      OH2            -4.0416686291      -17.3913094476      -11.0735448426  W2        344             0.0000000000
      1031       344  TIP3      H1             -4.6855686291      -18.0224494476      -10.7521748426  W2        344             0.0000000000
      1032       344  TIP3      H2             -3.2798386291      -17.9225094476      -11.3051948426  W2        344             0.0000000000
      1033       345  TIP3      OH2            -1.5567586291      -18.5192594476        6.2804251574  W2        345             0.0000000000
      1034       345  TIP3      H1             -1.9078086291      -19.3759594476        6.5234651574  W2        345             0.0000000000
      1035       345  TIP3      H2             -0.8304386291      -18.3765894476        6.8873251574  W2        345             0.0000000000
      1036       346  TIP3      OH2             0.5626213709      -17.5743194476      -10.8397448426  W2        346             0.0000000000
      1037       346  TIP3      H1              0.8456613709      -18.3687994476      -10.3870548426  W2        346             0.0000000000
      1038       346  TIP3      H2              1.3024113709      -17.3412194476      -11.4006348426  W2        346             0.0000000000
      1039       347  TIP3      OH2           -12.8240186291      -22.0083994476        6.8852851574  W2        347             0.0000000000
      1040       347  TIP3      H1            -12.6799686291      -22.9103294476        6.5989551574  W2        347             0.0000000000
      1041       347  TIP3      H2            -13.5962786291      -21.7221894476        6.3975151574  W2        347             0.0000000000
      1042       348  TIP3      OH2            -8.4826486291      -21.6648294476      -10.9822548426  W2        348             0.0000000000
      1043       348  TIP3      H1             -8.4182386291      -22.4588694476      -10.4516148426  W2        348             0.0000000000
      1044       348  TIP3      H2             -7.8297286291      -21.7835494476      -11.6720548426  W2        348             0.0000000000
      1045       349  TIP3      OH2            -6.1684086291      -22.0385894476        6.3179251574  W2        349             0.0000000000
      1046       349  TIP3      H1             -6.4970286291      -21.7677794476        5.4606651574  W2        349             0.0000000000
      1047       349  TIP3      H2             -6.0165886291      -22.9796094476        6.2304251574  W2        349             0.0000000000
      1048       350  TIP3      OH2            -3.1303086291      -20.6176594476      -11.2464548426  W2        350             0.0000000000
      1049       350  TIP3      H1             -3.3988986291      -20.4374494476      -10.3455648426  W2        350             0.0000000000
      1050       350  TIP3      H2             -3.3367486291      -21.5430394476      -11.3778748426  W2        350             0.0000000000
      1051       351  TIP3      OH2            -0.4338886291      -22.1228594476        3.7011551574  W2        351             0.0000000000
      1052       351  TIP3      H1              0.3115913709      -21.5344894476        3.5815551574  W2        351             0.0000000000
      1053       351  TIP3      H2             -1.1912086291      -21.5408894476        3.7644651574  W2        351             0.0000000000
      1054       352  TIP3      OH2           -11.9913686291      -24.8080694476        6.3052151574  W2        352             0.0000000000
      1055       352  TIP3      H1            -11.5832486291      -25.6654094476        6.1842751574  W2        352             0.0000000000
      1056       352  TIP3      H2            -12.2516086291      -24.7939394476        7.2262451574  W2        352             0.0000000000
      1057       353  TIP3      OH2            -7.3332686291      -23.6922094476       -8.6764548426  W2        353             0.0000000000
      1058       353  TIP3      H1             -7.7930686291      -24.1763794476       -7.9906048426  W2        353             0.0000000000
      1059       353  TIP3      H2             -7.0783986291      -24.3606694476       -9.3124048426  W2        353             0.0000000000
      1060       354  TIP3      OH2            -8.0443386291      -25.7994994476        3.6795051574  W2        354             0.0000000000
      1061       354  TIP3      H1             -8.6627286291      -25.1248394476        3.9599751574  W2        354             0.0000000000
      1062       354  TIP3      H2             -7.7002186291      -25.4781094476        2.8461251574  W2        354             0.0000000000
      1063       355  TIP3      OH2            -6.2622286291      -25.4490294476      -10.4141348426  W2        355             0.0000000000
      1064       355  TIP3      H1             -6.4427286291      -25.6039094476      -11.3413048426  W2        355             0.0000000000
      1065       355  TIP3      H2             -5.3121786291      -25.3411594476      -10.3693448426  W2        355             0.0000000000
      1066       356  TIP3      OH2            -3.0245186291      -23.3279694476        6.9569851574  W2        356             0.0000000000
      1067       356  TIP3      H1             -2.0713986291      -23.2440594476        6.9295851574  W2        356             0.0000000000
      1068       356  TIP3      H2             -3.1850586291      -24.0397894476        7.5764751574  W2        356             0.0000000000
      1069       357  TIP3      OH2             3.1276013709      -23.0946094476      -10.9683248426  W2        357             0.0000000000
      1070       357  TIP3      H1              2.8540813709      -23.5190594476      -11.7814948426  W2        357             0.0000000000
      1071       357  TIP3      H2              3.1670113709      -22.1631594476      -11.1852848426  W2        357             0.0000000000
      1072       358  TIP3      OH2            -7.7049686291      -28.4444194476        4.7618151574  W2        358             0.0000000000
      1073       358  TIP3      H1             -7.5548786291      -29.1732894476        4.1597851574  W2        358             0.0000000000
      1074       358  TIP3      H2             -7.7027286291      -27.6672494476        4.2030351574  W2        358             0.0000000000
      1075       359  TIP3      OH2            -7.2923986291      -30.0748394476        2.2545551574  W2        359             0.0000000000
      1076       359  TIP3      H1             -6.7566486291      -29.6231694476        1.6024851574  W2        359             0.0000000000
      1077       359  TIP3      H2             -8.1444386291      -30.1828594476        1.8319651574  W2        359             0.0000000000
      1078       360  TIP3      OH2            -5.7105586291      -24.6352194476        2.4940751574  W2        360             0.0000000000
      1079       360  TIP3      H1             -4.9600786291      -24.7914694476        1.9208551574  W2        360             0.0000000000
      1080       360  TIP3      H2             -6.0497286291      -23.7835594476        2.2186251574  W2        360             0.0000000000
      1081       361  TIP3      OH2            -1.2949386291      -26.8200394476        7.5226051574  W2        361             0.0000000000
      1082       361  TIP3      H1             -1.1028086291      -27.7510994476        7.4110551574  W2        361             0.0000000000
      1083       361  TIP3      H2             -0.4373086291      -26.3950894476        7.5121451574  W2        361             0.0000000000
      1084       362  TIP3      OH2             0.0217813709      -24.0315194476        5.5998751574  W2        362             0.0000000000
      1085       362  TIP3      H1             -0.2597186291      -23.3220594476        5.0222551574  W2        362             0.0000000000
      1086       362  TIP3      H2              0.9642113709      -24.1042194476        5.4489951574  W2        362             0.0000000000
      1087       363  TIP3      OH2            -9.2263386291      -27.2460694476        6.6733751574  W2        363             0.0000000000
      1088       363  TIP3      H1             -9.9934386291      -27.7785894476        6.4631351574  W2        363             0.0000000000
      1089       363  TIP3      H2             -8.5474386291      -27.5560294476        6.0740051574  W2        363             0.0000000000
      1090       364  TIP3      OH2            -6.4868486291      -32.6182694476        2.6859151574  W2        364             0.0000000000
      1091       364  TIP3      H1             -6.5848886291      -31.6719494476        2.5805351574  W2        364             0.0000000000
      1092       364  TIP3      H2             -7.2292286291      -32.9908894476        2.2102651574  W2        364             0.0000000000
      1093       365  TIP3      OH2            -5.2227986291      -28.2967294476        6.2497551574  W2        365             0.0000000000
      1094       365  TIP3      H1             -5.4582586291      -28.5160594476        7.1512451574  W2        365             0.0000000000
      1095       365  TIP3      H2             -6.0061086291      -28.5036094476        5.7400051574  W2        365             0.0000000000
      1096       366  TIP3      OH2            -2.5071386291      -29.1693794476        5.3251051574  W2        366             0.0000000000
      1097       366  TIP3      H1             -3.4545986291      -29.1374094476        5.4574351574  W2        366             0.0000000000
      1098       366  TIP3      H2             -2.1944686291      -29.7946694476        5.9789251574  W2        366             0.0000000000
      1099       367  TIP3      OH2            -0.8729886291      -30.5352694476        7.3302951574  W2        367             0.0000000000
      1100       367  TIP3      H1             -0.9698086291      -31.4875394476        7.3244851574  W2        367             0.0000000000
      1101       367  TIP3      H2             -1.1946786291      -30.2665894476        8.1908451574  W2        367             0.0000000000
      1102       368  TIP3      OH2           -11.0460586291      -29.3256894476        6.3778451574  W2        368             0.0000000000
      1103       368  TIP3      H1            -10.8343186291      -30.0320794476        5.7675951574  W2        368             0.0000000000
      1104       368  TIP3      H2            -11.1573086291      -29.7630894476        7.2219651574  W2        368             0.0000000000
      1105       369  TIP3      OH2            -6.2650386291      -33.3245294476        5.3571951574  W2        369             0.0000000000
      1106       369  TIP3      H1             -5.5531986291      -33.9643094476        5.3431051574  W2        369             0.0000000000
      1107       369  TIP3      H2             -6.3659986291      -33.0576994476        4.4435051574  W2        369             0.0000000000
      1108       370  TIP3      OH2            -5.9112886291      -31.6416894476        7.4108251574  W2        370             0.0000000000
      1109       370  TIP3      H1             -6.0430686291      -32.1173094476        6.5906751574  W2        370             0.0000000000
      1110       370  TIP3      H2             -6.5105486291      -30.8973294476        7.3555351574  W2        370             0.0000000000
      1111       371  TIP3      OH2            -6.3650586291      -14.7586594476       -9.4127748426  W2        371             0.0000000000
      1112       371  TIP3      H1             -5.4319886291      -14.6007894476       -9.2689348426  W2        371             0.0000000000
      1113       371  TIP3      H2             -6.6291786291      -14.0833594476      -10.0376248426  W2        371             0.0000000000
      1114       372  TIP3      OH2           -12.7965686291      -20.1222794476       -9.9299648426  W2        372             0.0000000000
      1115       372  TIP3      H1            -11.8826486291      -20.0433894476       -9.6565748426  W2        372             0.0000000000
      1116       372  TIP3      H2            -12.7892586291      -20.8093194476      -10.5964048426  W2        372             0.0000000000
      1117       373  TIP3      OH2           -14.1475086291      -14.7294294476       -4.8525748426  W2        373             0.0000000000
      1118       373  TIP3      H1            -14.7947986291      -15.1912594476       -5.3854548426  W2        373             0.0000000000
      1119       373  TIP3      H2            -13.7930486291      -15.4010994476       -4.2699548426  W2        373             0.0000000000
      1120       374  TIP3      OH2           -13.2775886291      -16.6487294476       -3.0479548426  W2        374             0.0000000000
      1121       374  TIP3      H1            -13.6119086291      -17.5289994476       -2.8759348426  W2        374             0.0000000000
      1122       374  TIP3      H2            -13.0553486291      -16.3032294476       -2.1833948426  W2        374             0.0000000000
      1123       375  TIP3      OH2             4.2708913709      -15.8390894476       -0.0674748426  W2        375             0.0000000000
      1124       375  TIP3      H1              4.2495613709      -15.6542494476        0.8714651574  W2        375             0.0000000000
      1125       375  TIP3      H2              4.9615113709      -15.2706894476       -0.4083348426  W2        375             0.0000000000
      1126       376  TIP3      OH2             3.8341813709      -16.2719794476        2.8544351574  W2        376             0.0000000000
      1127       376  TIP3      H1              3.3470513709      -17.0075694476        2.4831751574  W2        376             0.0000000000
      1128       376  TIP3      H2              4.3834513709      -16.6655894476        3.5323751574  W2        376             0.0000000000
      1129       377  TIP3      OH2             2.2849113709      -20.4821694476        7.4924651574  W2        377             0.0000000000
      1130       377  TIP3      H1              1.4190213709      -20.5871994476        7.8866951574  W2        377             0.0000000000
      1131       377  TIP3      H2              2.6615013709      -19.7238394476        7.9389351574  W2        377             0.0000000000
      1132       378  TIP3      OH2             3.5858813709      -22.2257994476       -6.9932848426  W2        378             0.0000000000
      1133       378  TIP3      H1              4.4360213709      -21.8047094476       -6.8661248426  W2        378             0.0000000000
      1134       378  TIP3      H2              3.5913913709      -22.9657894476       -6.3861448426  W2        378             0.0000000000
      1135       379  TIP3      OH2             3.9804413709      -24.1720594476       -5.1697148426  W2        379             0.0000000000
      1136       379  TIP3      H1              3.2539013709      -24.6517994476       -4.7719548426  W2        379             0.0000000000
      1137       379  TIP3      H2              4.5617713709      -23.9665894476       -4.4375548426  W2        379             0.0000000000
      1138       380  TIP3      OH2             3.7395613709      -21.3873094476       -0.2219548426  W2        380             0.0000000000
      1139       380  TIP3      H1              4.5729813709      -21.7653094476       -0.5025948426  W2        380             0.0000000000
      1140       380  TIP3      H2              3.8515913709      -20.4441894476       -0.3410448426  W2        380             0.0000000000
      1141       381  TIP3      OH2             2.2257913709      -18.5095594476        2.0848851574  W2        381             0.0000000000
      1142       381  TIP3      H1              1.5783213709      -18.1844094476        2.7104051574  W2        381             0.0000000000
      1143       381  TIP3      H2              1.7081913709      -18.9497894476        1.4107151574  W2        381             0.0000000000
      1144       382  TIP3      OH2             4.2487513709      -24.2712094476       -8.7785848426  W2        382             0.0000000000
      1145       382  TIP3      H1              3.7268613709      -23.9147994476       -9.4974948426  W2        382             0.0000000000
      1146       382  TIP3      H2              4.2156713709      -23.5964294476       -8.1004948426  W2        382             0.0000000000
      1147       383  TIP3      OH2             2.5976513709      -27.0316494476      -10.2278748426  W2        383             0.0000000000
      1148       383  TIP3      H1              2.6940913709      -26.3649494476      -10.9079048426  W2        383             0.0000000000
      1149       383  TIP3      H2              2.4576113709      -27.8470194476      -10.7093248426  W2        383             0.0000000000
      1150       384  TIP3      OH2             1.7671213709      -25.6514094476       -4.6068448426  W2        384             0.0000000000
      1151       384  TIP3      H1              1.6170013709      -26.5965494476       -4.6270648426  W2        384             0.0000000000
      1152       384  TIP3      H2              1.4135713709      -25.3702694476       -3.7629348426  W2        384             0.0000000000
      1153       385  TIP3      OH2           -13.1976386291      -23.5731894476       -0.5964648426  W2        385             0.0000000000
      1154       385  TIP3      H1            -13.0133486291      -23.6550194476       -1.5321748426  W2        385             0.0000000000
      1155       385  TIP3      H2            -12.3483486291      -23.6974894476       -0.1728248426  W2        385             0.0000000000
      1156       386  TIP3      OH2             2.6234113709      -23.6810794476        5.0319851574  W2        386             0.0000000000
      1157       386  TIP3      H1              3.2061413709      -24.4158494476        5.2237051574  W2        386             0.0000000000
      1158       386  TIP3      H2              3.1873413709      -22.9090494476        5.0785651574  W2        386             0.0000000000
      1159       387  TIP3      OH2             4.1201213709      -25.7784994476        5.7165251574  W2        387             0.0000000000
      1160       387  TIP3      H1              3.2567913709      -26.1572894476        5.5509951574  W2        387             0.0000000000
      1161       387  TIP3      H2              4.7244913709      -26.5170194476        5.6421051574  W2        387             0.0000000000
      1162       388  TIP3      OH2             1.8450313709      -29.6236694476      -11.1103248426  W2        388             0.0000000000
      1163       388  TIP3      H1              2.4556113709      -29.9949894476      -10.4735048426  W2        388             0.0000000000
      1164       388  TIP3      H2              1.0081813709      -30.0449794476      -10.9143248426  W2        388             0.0000000000
      1165       389  TIP3      OH2             1.4776013709      -28.0688294476       -6.1443348426  W2        389             0.0000000000
      1166       389  TIP3      H1              1.7573113709      -28.9757894476       -6.0201648426  W2        389             0.0000000000
      1167       389  TIP3      H2              2.2367713709      -27.6346794476       -6.5334148426  W2        389             0.0000000000
      1168       390  TIP3      OH2             2.0894313709      -27.4870894476       -0.7084448426  W2        390             0.0000000000
      1169       390  TIP3      H1              3.0222313709      -27.2750994476       -0.7428448426  W2        390             0.0000000000
      1170       390  TIP3      H2              1.8541813709      -27.3858794476        0.2138551574  W2        390             0.0000000000
      1171       391  TIP3      OH2             2.1186213709      -26.7505594476        2.0674951574  W2        391             0.0000000000
      1172       391  TIP3      H1              1.2757513709      -26.4825194476        2.4334751574  W2        391             0.0000000000
      1173       391  TIP3      H2              2.5610513709      -25.9283694476        1.8566051574  W2        391             0.0000000000
      1174       392  TIP3      OH2           -13.6001586291      -28.3026894476        5.5444151574  W2        392             0.0000000000
      1175       392  TIP3      H1            -12.6806686291      -28.4248594476        5.7807251574  W2        392             0.0000000000
      1176       392  TIP3      H2            -14.0497086291      -29.0527194476        5.9337651574  W2        392             0.0000000000
      1177       393  TIP3      OH2             4.4017813709      -32.7705394476        7.4209951574  W2        393             0.0000000000
      1178       393  TIP3      H1              4.7514813709      -33.4241894476        6.8154651574  W2        393             0.0000000000
      1179       393  TIP3      H2              4.5487313709      -31.9331294476        6.9812551574  W2        393             0.0000000000
      1180       394  TIP3      OH2             2.0910813709      -30.8058994476       -6.0961348426  W2        394             0.0000000000
      1181       394  TIP3      H1              2.2735813709      -31.2547494476       -5.2706348426  W2        394             0.0000000000
      1182       394  TIP3      H2              1.4913713709      -31.3904594476       -6.5596748426  W2        394             0.0000000000
      1183       395  TIP3      OH2           -12.3789086291      -29.9905294476       -1.5642948426  W2        395             0.0000000000
      1184       395  TIP3      H1            -11.9337486291      -30.7822794476       -1.2623248426  W2        395             0.0000000000
      1185       395  TIP3      H2            -11.9126086291      -29.2740094476       -1.1337348426  W2        395             0.0000000000
      1186       396  TIP3      OH2           -14.0748786291      -26.9912294476       -0.4952748426  W2        396             0.0000000000
      1187       396  TIP3      H1            -13.5828986291      -27.2121794476       -1.2860748426  W2        396             0.0000000000
      1188       396  TIP3      H2            -13.7127886291      -26.1508894476       -0.2143248426  W2        396             0.0000000000
      1189       397  TIP3      OH2             3.9215013709      -30.6610794476        5.7701251574  W2        397             0.0000000000
      1190       397  TIP3      H1              3.0040713709      -30.3903694476        5.7344751574  W2        397             0.0000000000
      1191       397  TIP3      H2              4.0444413709      -31.1962394476        4.9860951574  W2        397             0.0000000000
      1192       398  TIP3      OH2             3.9577013709      -30.7380894476       -9.5681048426  W2        398             0.0000000000
      1193       398  TIP3      H1              4.3699613709      -31.4595194476      -10.0433048426  W2        398             0.0000000000
      1194       398  TIP3      H2              4.6393513709      -30.0686294476       -9.5096748426  W2        398             0.0000000000
      1195       399  TIP3      OH2           -13.7612286291      -30.7333194476       -6.4410348426  W2        399             0.0000000000
      1196       399  TIP3      H1            -14.6863886291      -30.5246594476       -6.5704848426  W2        399             0.0000000000
      1197       399  TIP3      H2            -13.3072386291      -30.2492394476       -7.1308048426  W2        399             0.0000000000
      1198       400  TIP3      OH2             1.0094913709      -15.7491494476       -4.4952948426  W2        400             0.0000000000
      1199       400  TIP3      H1              1.6617813709      -16.0969394476       -5.1033848426  W2        400             0.0000000000
      1200       400  TIP3      H2              1.5198713709      -15.2608294476       -3.8493248426  W2        400             0.0000000000
      1201       401  TIP3      OH2           -13.7976886291      -31.9954194476        1.9032151574  W2        401             0.0000000000
      1202       401  TIP3      H1            -14.4626386291      -32.2413894476        2.5463051574  W2        401             0.0000000000
      1203       401  TIP3      H2            -14.2405586291      -31.3733794476        1.3260151574  W2        401             0.0000000000
      1204       402  TIP3      OH2           -11.6057586291      -18.8200094476        6.0477951574  W2        402             0.0000000000
      1205       402  TIP3      H1            -12.4265086291      -18.6453594476        5.5872651574  W2        402             0.0000000000
      1206       402  TIP3      H2            -11.8579786291      -18.8935394476        6.9682351574  W2        402             0.0000000000
      1207       403  TIP3      OH2            -8.6514686291      -17.8458894476        2.3061951574  W2        403             0.0000000000
      1208       403  TIP3      H1             -9.0763586291      -17.0360394476        2.0236551574  W2        403             0.0000000000
      1209       403  TIP3      H2             -7.7471886291      -17.7604794476        2.0041751574  W2        403             0.0000000000
      1210       404  TIP3      OH2            -4.3403286291      -16.4468894476        5.2655651574  W2        404             0.0000000000
      1211       404  TIP3      H1             -4.1555786291      -16.7802794476        6.1435951574  W2        404             0.0000000000
      1212       404  TIP3      H2             -3.4938786291      -16.1370294476        4.9434851574  W2        404             0.0000000000
      1213       405  TIP3      OH2            -1.9952886291      -15.1609994476        4.5097051574  W2        405             0.0000000000
      1214       405  TIP3      H1             -1.3183986291      -15.7937694476        4.2696251574  W2        405             0.0000000000
      1215       405  TIP3      H2             -1.6734086291      -14.7599494476        5.3170351574  W2        405             0.0000000000
      1216       406  TIP3      OH2             2.9220913709      -32.5714494476        3.5892051574  W2        406             0.0000000000
      1217       406  TIP3      H1              2.1094413709      -32.2464194476        3.2016751574  W2        406             0.0000000000
      1218       406  TIP3      H2              3.1549413709      -33.3315994476        3.0561151574  W2        406             0.0000000000
      1219       407  TIP3      OH2           -11.2497986291      -14.5894994476        2.3537251574  W2        407             0.0000000000
      1220       407  TIP3      H1            -11.9701586291      -14.1493994476        1.9024951574  W2        407             0.0000000000
      1221       407  TIP3      H2            -11.6153986291      -14.8400294476        3.2021251574  W2        407             0.0000000000
      1222       408  TIP3      OH2            -8.7825386291      -14.9891094476        1.3834451574  W2        408             0.0000000000
      1223       408  TIP3      H1             -9.6473186291      -14.9172594476        1.7874551574  W2        408             0.0000000000
      1224       408  TIP3      H2             -8.8376386291      -14.4423794476        0.5996951574  W2        408             0.0000000000
      1225       409  TIP3      OH2            -4.0719786291      -15.1012194476        0.5590451574  W2        409             0.0000000000
      1226       409  TIP3      H1             -4.5285786291      -14.5722494476       -0.0951148426  W2        409             0.0000000000
      1227       409  TIP3      H2             -3.9091786291      -14.4980794476        1.2842751574  W2        409             0.0000000000
      1228       410  TIP3      OH2            -1.7443486291      -16.2232594476        1.5040751574  W2        410             0.0000000000
      1229       410  TIP3      H1             -2.6489786291      -16.0582394476        1.2382851574  W2        410             0.0000000000
      1230       410  TIP3      H2             -1.3154886291      -15.3700394476        1.4384151574  W2        410             0.0000000000
      1231       411  TIP3      OH2             0.8598413709      -14.6533494476        1.7988551574  W2        411             0.0000000000
      1232       411  TIP3      H1              0.6780413709      -13.7374594476        1.5883451574  W2        411             0.0000000000
      1233       411  TIP3      H2              1.0366213709      -15.0636394476        0.9523151574  W2        411             0.0000000000
      1234       412  TIP3      OH2           -11.8349886291      -15.9662494476       -0.7360948426  W2        412             0.0000000000
      1235       412  TIP3      H1            -11.8533886291      -16.3917394476        0.1211351574  W2        412             0.0000000000
      1236       412  TIP3      H2            -11.0301986291      -16.2847494476       -1.1448748426  W2        412             0.0000000000
      1237       413  TIP3      OH2            -9.6936786291      -17.2563794476       -2.0811048426  W2        413             0.0000000000
      1238       413  TIP3      H1             -9.9126086291      -18.1726394476       -1.9115048426  W2        413             0.0000000000
      1239       413  TIP3      H2             -8.8694586291      -17.1163394476       -1.6149648426  W2        413             0.0000000000
      1240       414  TIP3      OH2            -7.1564286291      -16.7864494476       -1.2323048426  W2        414             0.0000000000
      1241       414  TIP3      H1             -6.9438586291      -17.6745494476       -1.5192148426  W2        414             0.0000000000
      1242       414  TIP3      H2             -7.0919186291      -16.8206794476       -0.2779048426  W2        414             0.0000000000
      1243       415  TIP3      OH2            -3.6480586291      -31.1223894476       -2.0879748426  W2        415             0.0000000000
      1244       415  TIP3      H1             -4.3223786291      -31.7518294476       -1.8323948426  W2        415             0.0000000000
      1245       415  TIP3      H2             -3.0841386291      -31.6064994476       -2.6911848426  W2        415             0.0000000000
      1246       416  TIP3      OH2             1.4946613709      -33.0149894476       -1.9752648426  W2        416             0.0000000000
      1247       416  TIP3      H1              2.0984213709      -32.4674494476       -2.4771648426  W2        416             0.0000000000
      1248       416  TIP3      H2              0.6248613709      -32.6959494476       -2.2158548426  W2        416             0.0000000000
      1249       417  TIP3      OH2             3.2217013709      -31.8761194476       -3.6421748426  W2        417             0.0000000000
      1250       417  TIP3      H1              3.8334513709      -32.3905494476       -4.1688148426  W2        417             0.0000000000
      1251       417  TIP3      H2              3.6040413709      -30.9989094476       -3.6187348426  W2        417             0.0000000000
      1252       418  TIP3      OH2           -11.3213086291      -32.4883594476       -4.2659848426  W2        418             0.0000000000
      1253       418  TIP3      H1            -12.0983286291      -32.7228694476       -4.7733948426  W2        418             0.0000000000
      1254       418  TIP3      H2            -10.7909486291      -33.2851494476       -4.2571848426  W2        418             0.0000000000
      1255       419  TIP3      OH2           -12.4849686291      -32.6905494476       -8.4623748426  W2        419             0.0000000000
      1256       419  TIP3      H1            -12.0458986291      -32.0794994476       -9.0540248426  W2        419             0.0000000000
      1257       419  TIP3      H2            -13.1187286291      -32.1521394476       -7.9883748426  W2        419             0.0000000000
      1258       420  TIP3      OH2            -6.7420486291      -32.5616494476       -4.4526748426  W2        420             0.0000000000
      1259       420  TIP3      H1             -5.8677086291      -32.1732194476       -4.4822448426  W2        420             0.0000000000
      1260       420  TIP3      H2             -6.8779686291      -32.7768694476       -3.5299548426  W2        420             0.0000000000
      1261       421  TIP3      OH2            -1.1852086291      -32.5316694476       -2.8035048426  W2        421             0.0000000000
      1262       421  TIP3      H1             -1.1090486291      -32.4365094476       -3.7529048426  W2        421             0.0000000000
      1263       421  TIP3      H2             -1.4602886291      -33.4393794476       -2.6745948426  W2        421             0.0000000000
      1264       422  TIP3      OH2             0.1680513709      -32.5058894476       -7.1110048426  W2        422             0.0000000000
      1265       422  TIP3      H1             -0.5348386291      -31.8909694476       -7.3208648426  W2        422             0.0000000000
      1266       422  TIP3      H2             -0.2768086291      -33.3432194476       -6.9799148426  W2        422             0.0000000000
      1267       423  TIP3      OH2           -12.5840186291      -16.7423294476       -7.5648648426  W2        423             0.0000000000
      1268       423  TIP3      H1            -13.2690286291      -16.7804394476       -8.2323548426  W2        423             0.0000000000
      1269       423  TIP3      H2            -12.5802986291      -15.8295694476       -7.2766548426  W2        423             0.0000000000
      1270       424  TIP3      OH2           -10.6240586291      -30.7743994476      -10.0199648426  W2        424             0.0000000000
      1271       424  TIP3      H1            -10.1327186291      -31.4041594476      -10.5474148426  W2        424             0.0000000000
      1272       424  TIP3      H2            -10.0004286291      -30.4784594476       -9.3568448426  W2        424             0.0000000000
      1273       425  TIP3      OH2            -5.5980486291      -30.4812494476       -7.5629148426  W2        425             0.0000000000
      1274       425  TIP3      H1             -5.4199186291      -31.1279294476       -6.8800548426  W2        425             0.0000000000
      1275       425  TIP3      H2             -5.6514286291      -29.6474794476       -7.0958048426  W2        425             0.0000000000
      1276       426  TIP3      OH2            -3.7196686291      -15.5328394476       -9.1672448426  W2        426             0.0000000000
      1277       426  TIP3      H1             -2.8536486291      -15.1660994476       -9.3454248426  W2        426             0.0000000000
      1278       426  TIP3      H2             -3.9663886291      -15.9720394476       -9.9811648426  W2        426             0.0000000000
      1279       427  TIP3      OH2             2.9892913709      -15.9698094476       -6.4881348426  W2        427             0.0000000000
      1280       427  TIP3      H1              2.7950013709      -16.7175994476       -7.0531748426  W2        427             0.0000000000
      1281       427  TIP3      H2              2.9503013709      -15.2117994476       -7.0713448426  W2        427             0.0000000000
      1282       428  TIP3      OH2           -11.3635086291      -31.9741694476        5.2516351574  W2        428             0.0000000000
      1283       428  TIP3      H1            -11.7296886291      -32.7399094476        5.6941051574  W2        428             0.0000000000
      1284       428  TIP3      H2            -10.4506586291      -31.9451494476        5.5381451574  W2        428             0.0000000000
      1285       429  TIP3      OH2            -9.3904286291      -32.6237294476        6.7873451574  W2        429             0.0000000000
      1286       429  TIP3      H1             -8.4920686291      -32.8977094476        6.6026851574  W2        429             0.0000000000
      1287       429  TIP3      H2             -9.7771186291      -33.3661294476        7.2516051574  W2        429             0.0000000000
      1288       430  TIP3      OH2           -10.7658986291      -15.8222494476      -10.5396548426  W2        430             0.0000000000
      1289       430  TIP3      H1            -11.0334386291      -15.5359594476       -9.6663448426  W2        430             0.0000000000
      1290       430  TIP3      H2             -9.9946386291      -16.3683294476      -10.3874048426  W2        430             0.0000000000
      1291       431  TIP3      OH2            -0.9691986291      -33.2911994476        6.9696251574  W2        431             0.0000000000
      1292       431  TIP3      H1             -0.8924786291      -33.7171294476        7.8233951574  W2        431             0.0000000000
      1293       431  TIP3      H2             -0.0755386291      -33.2777294476        6.6269751574  W2        431             0.0000000000
      1294       432  TIP3      OH2             2.2069113709      -17.2185694476        5.6620451574  W2        432             0.0000000000
      1295       432  TIP3      H1              1.4251013709      -17.4047694476        5.1421051574  W2        432             0.0000000000
      1296       432  TIP3      H2              2.1349013709      -16.2891394476        5.8792951574  W2        432             0.0000000000
      1297       433  TIP3      OH2            16.6129513709      -23.3321294476       -4.3072348426  W2        433             0.0000000000
      1298       433  TIP3      H1             16.7020613709      -22.3883094476       -4.4395248426  W2        433             0.0000000000
      1299       433  TIP3      H2             15.9747113709      -23.6074894476       -4.9652948426  W2        433             0.0000000000
      1300       434  TIP3      OH2            15.5460813709      -24.0770594476       -0.8884148426  W2        434             0.0000000000
      1301       434  TIP3      H1             15.5078313709      -24.7234294476       -0.1834548426  W2        434             0.0000000000
      1302       434  TIP3      H2             15.2237313709      -24.5436194476       -1.6595448426  W2        434             0.0000000000
      1303       435  TIP3      OH2             7.9145813709      -24.4628494476        0.7045751574  W2        435             0.0000000000
      1304       435  TIP3      H1              7.9557913709      -25.0885194476        1.4278151574  W2        435             0.0000000000
      1305       435  TIP3      H2              8.6173513709      -23.8389894476        0.8866151574  W2        435             0.0000000000
      1306       436  TIP3      OH2            19.2521013709      -21.1380194476       -2.5869048426  W2        436             0.0000000000
      1307       436  TIP3      H1             18.8113713709      -21.8584194476       -2.1363448426  W2        436             0.0000000000
      1308       436  TIP3      H2             19.2390713709      -20.4172994476       -1.9571348426  W2        436             0.0000000000
      1309       437  TIP3      OH2             8.8378913709      -20.0129594476       -0.7605148426  W2        437             0.0000000000
      1310       437  TIP3      H1              8.4684113709      -20.8149094476       -1.1300848426  W2        437             0.0000000000
      1311       437  TIP3      H2              9.7790013709      -20.1814694476       -0.7141748426  W2        437             0.0000000000
      1312       438  TIP3      OH2             5.4479413709      -26.3526994476       -5.3676348426  W2        438             0.0000000000
      1313       438  TIP3      H1              5.0002813709      -25.5068294476       -5.3859848426  W2        438             0.0000000000
      1314       438  TIP3      H2              4.8870613709      -26.9322794476       -5.8831248426  W2        438             0.0000000000
      1315       439  TIP3      OH2             6.1585513709      -24.1907394476       -3.2418348426  W2        439             0.0000000000
      1316       439  TIP3      H1              6.3719013709      -24.9605794476       -2.7145348426  W2        439             0.0000000000
      1317       439  TIP3      H2              6.8963113709      -24.1010694476       -3.8450748426  W2        439             0.0000000000
      1318       440  TIP3      OH2            16.3636513709      -16.0338494476       -2.3748648426  W2        440             0.0000000000
      1319       440  TIP3      H1             16.9832913709      -16.7103794476       -2.6479448426  W2        440             0.0000000000
      1320       440  TIP3      H2             16.1553913709      -16.2517694476       -1.4663748426  W2        440             0.0000000000
      1321       441  TIP3      OH2            13.9355213709      -21.6449194476       -0.4823148426  W2        441             0.0000000000
      1322       441  TIP3      H1             14.2393113709      -22.3307794476       -1.0769048426  W2        441             0.0000000000
      1323       441  TIP3      H2             14.6569213709      -21.5260494476        0.1354851574  W2        441             0.0000000000
      1324       442  TIP3      OH2            22.5985013709      -30.0433894476        0.3783051574  W2        442             0.0000000000
      1325       442  TIP3      H1             22.6477213709      -29.4332694476        1.1142151574  W2        442             0.0000000000
      1326       442  TIP3      H2             23.0240113709      -29.5822994476       -0.3445848426  W2        442             0.0000000000
      1327       443  TIP3      OH2            17.0762213709      -27.2506794476       -0.1548348426  W2        443             0.0000000000
      1328       443  TIP3      H1             17.2188113709      -28.1969794476       -0.1346748426  W2        443             0.0000000000
      1329       443  TIP3      H2             16.9701213709      -27.0436994476       -1.0833448426  W2        443             0.0000000000
      1330       444  TIP3      OH2            10.2310513709      -29.1490394476       -2.8823548426  W2        444             0.0000000000
      1331       444  TIP3      H1             10.2741613709      -28.2891894476       -3.3007248426  W2        444             0.0000000000
      1332       444  TIP3      H2              9.7734613709      -29.7015694476       -3.5160348426  W2        444             0.0000000000
      1333       445  TIP3      OH2            17.9533213709      -29.0184794476       -4.4815248426  W2        445             0.0000000000
      1334       445  TIP3      H1             18.5997513709      -29.3471594476       -3.8567648426  W2        445             0.0000000000
      1335       445  TIP3      H2             18.4632613709      -28.5005794476       -5.1043848426  W2        445             0.0000000000
      1336       446  TIP3      OH2             6.8512013709      -26.7524594476       -2.1202148426  W2        446             0.0000000000
      1337       446  TIP3      H1              7.5048613709      -27.3022894476       -1.6882048426  W2        446             0.0000000000
      1338       446  TIP3      H2              6.8751313709      -27.0265594476       -3.0370148426  W2        446             0.0000000000
      1339       447  TIP3      OH2            12.0076513709      -25.2023294476       -2.9050648426  W2        447             0.0000000000
      1340       447  TIP3      H1             12.6237513709      -25.7287894476       -2.3956648426  W2        447             0.0000000000
      1341       447  TIP3      H2             11.4215313709      -25.8424594476       -3.3087048426  W2        447             0.0000000000
      1342       448  TIP3      OH2            22.9899613709      -28.5654694476        2.6142851574  W2        448             0.0000000000
      1343       448  TIP3      H1             22.3014213709      -27.9073994476        2.5189451574  W2        448             0.0000000000
      1344       448  TIP3      H2             23.0054213709      -28.7626794476        3.5508251574  W2        448             0.0000000000
      1345       449  TIP3      OH2             9.0412413709      -30.2311994476        1.1917251574  W2        449             0.0000000000
      1346       449  TIP3      H1              8.8224113709      -29.7011394476        0.4253251574  W2        449             0.0000000000
      1347       449  TIP3      H2              8.3733313709      -30.0046494476        1.8388651574  W2        449             0.0000000000
      1348       450  TIP3      OH2            16.4102213709      -20.7310894476       -5.2643648426  W2        450             0.0000000000
      1349       450  TIP3      H1             16.1147313709      -21.0538594476       -6.1156748426  W2        450             0.0000000000
      1350       450  TIP3      H2             16.0860013709      -19.8314194476       -5.2231048426  W2        450             0.0000000000
      1351       451  TIP3      OH2            11.6103813709      -22.5556294476        1.4790951574  W2        451             0.0000000000
      1352       451  TIP3      H1             10.8702913709      -21.9574794476        1.5826151574  W2        451             0.0000000000
      1353       451  TIP3      H2             12.3243313709      -22.0016694476        1.1634551574  W2        451             0.0000000000
      1354       452  TIP3      OH2            19.7171613709      -29.7275494476       -2.5009348426  W2        452             0.0000000000
      1355       452  TIP3      H1             19.5019613709      -30.4932094476       -1.9683348426  W2        452             0.0000000000
      1356       452  TIP3      H2             20.3729013709      -29.2550894476       -1.9880848426  W2        452             0.0000000000
      1357       453  TIP3      OH2             8.6349713709      -28.3390194476       -0.8560548426  W2        453             0.0000000000
      1358       453  TIP3      H1              9.2486013709      -27.7062594476       -0.4828148426  W2        453             0.0000000000
      1359       453  TIP3      H2              9.1470413709      -28.8115194476       -1.5123648426  W2        453             0.0000000000
      1360       454  TIP3      OH2            10.0178113709      -20.5913294476        2.2662451574  W2        454             0.0000000000
      1361       454  TIP3      H1             10.0125713709      -19.7119794476        1.8881751574  W2        454             0.0000000000
      1362       454  TIP3      H2              9.1642213709      -20.6749194476        2.6912351574  W2        454             0.0000000000
      1363       455  TIP3      OH2             6.1389013709      -20.9205394476       -6.9518248426  W2        455             0.0000000000
      1364       455  TIP3      H1              5.8669913709      -20.6914394476       -7.8405348426  W2        455             0.0000000000
      1365       455  TIP3      H2              6.1844713709      -20.0826594476       -6.4912948426  W2        455             0.0000000000
      1366       456  TIP3      OH2            19.7638713709      -19.2989494476       -0.2389748426  W2        456             0.0000000000
      1367       456  TIP3      H1             18.8222413709      -19.2405594476       -0.0772848426  W2        456             0.0000000000
      1368       456  TIP3      H2             20.0404813709      -18.3928994476       -0.3760048426  W2        456             0.0000000000
      1369       457  TIP3      OH2            20.0645713709      -31.0124194476        1.1784151574  W2        457             0.0000000000
      1370       457  TIP3      H1             19.3284913709      -30.4017094476        1.1405451574  W2        457             0.0000000000
      1371       457  TIP3      H2             20.7479713709      -30.5975194476        0.6520551574  W2        457             0.0000000000
      1372       458  TIP3      OH2            13.0677113709      -32.9256894476       -1.3557848426  W2        458             0.0000000000
      1373       458  TIP3      H1             12.9501313709      -33.8740894476       -1.4099548426  W2        458             0.0000000000
      1374       458  TIP3      H2             12.2127213709      -32.5930794476       -1.0826748426  W2        458             0.0000000000
      1375       459  TIP3      OH2            18.0159913709      -17.5175994476       -3.6138148426  W2        459             0.0000000000
      1376       459  TIP3      H1             18.4412213709      -18.2248094476       -4.0988548426  W2        459             0.0000000000
      1377       459  TIP3      H2             18.3329913709      -16.7163294476       -4.0305948426  W2        459             0.0000000000
      1378       460  TIP3      OH2            19.1756413709      -19.6167494476       -5.1051548426  W2        460             0.0000000000
      1379       460  TIP3      H1             18.9181213709      -20.3067394476       -5.7165648426  W2        460             0.0000000000
      1380       460  TIP3      H2             19.2467213709      -20.0596294476       -4.2595648426  W2        460             0.0000000000
      1381       461  TIP3      OH2            20.8616613709      -21.0500794476        3.3721951574  W2        461             0.0000000000
      1382       461  TIP3      H1             21.0012913709      -21.6418294476        2.6328951574  W2        461             0.0000000000
      1383       461  TIP3      H2             21.0289413709      -20.1774894476        3.0160751574  W2        461             0.0000000000
      1384       462  TIP3      OH2            15.3342013709      -24.0881294476       -6.8552048426  W2        462             0.0000000000
      1385       462  TIP3      H1             14.6227513709      -23.5531594476       -7.2071548426  W2        462             0.0000000000
      1386       462  TIP3      H2             16.0251613709      -24.0329194476       -7.5153148426  W2        462             0.0000000000
      1387       463  TIP3      OH2            15.3881213709      -25.6306994476       -9.8167048426  W2        463             0.0000000000
      1388       463  TIP3      H1             16.0891113709      -25.6080094476       -9.1653048426  W2        463             0.0000000000
      1389       463  TIP3      H2             15.6904113709      -26.2587294476      -10.4727748426  W2        463             0.0000000000
      1390       464  TIP3      OH2            22.7035913709      -24.7102794476        1.4382351574  W2        464             0.0000000000
      1391       464  TIP3      H1             22.0510013709      -24.0157194476        1.5273251574  W2        464             0.0000000000
      1392       464  TIP3      H2             23.1686213709      -24.5001894476        0.6283951574  W2        464             0.0000000000
      1393       465  TIP3      OH2            18.7399713709      -23.8787994476       -5.9036148426  W2        465             0.0000000000
      1394       465  TIP3      H1             18.0080713709      -23.6504294476       -5.3305548426  W2        465             0.0000000000
      1395       465  TIP3      H2             19.1871913709      -24.5925294476       -5.4488648426  W2        465             0.0000000000
      1396       466  TIP3      OH2            18.6373213709      -25.7045394476        3.1640851574  W2        466             0.0000000000
      1397       466  TIP3      H1             18.7172313709      -24.9410994476        3.7359351574  W2        466             0.0000000000
      1398       466  TIP3      H2             18.0360913709      -25.4252994476        2.4735951574  W2        466             0.0000000000
      1399       467  TIP3      OH2            10.3853413709      -23.2481794476       -4.0211148426  W2        467             0.0000000000
      1400       467  TIP3      H1             10.0548613709      -23.6188394476       -4.8394148426  W2        467             0.0000000000
      1401       467  TIP3      H2             10.9737513709      -23.9187794476       -3.6742848426  W2        467             0.0000000000
      1402       468  TIP3      OH2            11.7520913709      -19.8201194476       -1.3398948426  W2        468             0.0000000000
      1403       468  TIP3      H1             11.6572213709      -20.3988094476       -2.0964348426  W2        468             0.0000000000
      1404       468  TIP3      H2             12.4814513709      -20.1915494476       -0.8436148426  W2        468             0.0000000000
      1405       469  TIP3      OH2            10.7518913709      -24.4796194476       -0.3876148426  W2        469             0.0000000000
      1406       469  TIP3      H1             11.3171413709      -24.3581994476       -1.1504948426  W2        469             0.0000000000
      1407       469  TIP3      H2             11.0707813709      -23.8421194476        0.2512351574  W2        469             0.0000000000
      1408       470  TIP3      OH2            17.0611113709      -18.9764294476        0.3464351574  W2        470             0.0000000000
      1409       470  TIP3      H1             16.8207713709      -18.3141194476        0.9943551574  W2        470             0.0000000000
      1410       470  TIP3      H2             16.8629313709      -19.8109094476        0.7713951574  W2        470             0.0000000000
      1411       471  TIP3      OH2            11.6319613709      -20.0803494476        4.3295751574  W2        471             0.0000000000
      1412       471  TIP3      H1             11.3207113709      -19.2980294476        4.7848951574  W2        471             0.0000000000
      1413       471  TIP3      H2             10.9819813709      -20.2334394476        3.6437751574  W2        471             0.0000000000
      1414       472  TIP3      OH2            17.6109213709      -24.7165094476       -8.2184948426  W2        472             0.0000000000
      1415       472  TIP3      H1             18.1904713709      -24.5664794476       -7.4716048426  W2        472             0.0000000000
      1416       472  TIP3      H2             18.0249213709      -24.2457694476       -8.9418548426  W2        472             0.0000000000
      1417       473  TIP3      OH2             8.5519513709      -23.8822394476        3.5581451574  W2        473             0.0000000000
      1418       473  TIP3      H1              8.6222713709      -23.2315594476        4.2566451574  W2        473             0.0000000000
      1419       473  TIP3      H2              7.6611713709      -23.7794894476        3.2232351574  W2        473             0.0000000000
      1420       474  TIP3      OH2            15.3374113709      -17.9796594476       -4.7831848426  W2        474             0.0000000000
      1421       474  TIP3      H1             15.8111713709      -17.6840294476       -4.0057648426  W2        474             0.0000000000
      1422       474  TIP3      H2             14.7743413709      -17.2414994476       -5.0162248426  W2        474             0.0000000000
      1423       475  TIP3      OH2             9.8715513709      -18.0088494476        5.0929551574  W2        475             0.0000000000
      1424       475  TIP3      H1              9.8790813709      -18.1448794476        4.1455051574  W2        475             0.0000000000
      1425       475  TIP3      H2              8.9555913709      -18.1260394476        5.3449551574  W2        475             0.0000000000
      1426       476  TIP3      OH2            21.3097613709      -32.9664694476       -8.4055248426  W2        476             0.0000000000
      1427       476  TIP3      H1             20.4098313709      -32.8275694476       -8.1104648426  W2        476             0.0000000000
      1428       476  TIP3      H2             21.5616013709      -32.1350094476       -8.8073548426  W2        476             0.0000000000
      1429       477  TIP3      OH2             9.3756113709      -24.1787494476       -6.4318348426  W2        477             0.0000000000
      1430       477  TIP3      H1              9.0837413709      -23.4105794476       -6.9227048426  W2        477             0.0000000000
      1431       477  TIP3      H2              8.7011313709      -24.8381294476       -6.5946948426  W2        477             0.0000000000
      1432       478  TIP3      OH2            22.4989013709      -18.6002294476      -10.0291348426  W2        478             0.0000000000
      1433       478  TIP3      H1             22.5722513709      -17.6612094476       -9.8586048426  W2        478             0.0000000000
      1434       478  TIP3      H2             23.4044113709      -18.9053694476      -10.0854048426  W2        478             0.0000000000
      1435       479  TIP3      OH2             5.4686213709      -21.8158294476        2.3831451574  W2        479             0.0000000000
      1436       479  TIP3      H1              4.9674613709      -21.8438894476        1.5681151574  W2        479             0.0000000000
      1437       479  TIP3      H2              5.4739913709      -22.7215094476        2.6928751574  W2        479             0.0000000000
      1438       480  TIP3      OH2             5.2188913709      -19.0354494476       -0.7328348426  W2        480             0.0000000000
      1439       480  TIP3      H1              6.1649513709      -19.1797494476       -0.7518848426  W2        480             0.0000000000
      1440       480  TIP3      H2              5.1065213709      -18.2511694476       -0.1957148426  W2        480             0.0000000000
      1441       481  TIP3      OH2            23.4167413709      -18.3694794476        4.9495351574  W2        481             0.0000000000
      1442       481  TIP3      H1             23.3674213709      -19.3246694476        4.9122951574  W2        481             0.0000000000
      1443       481  TIP3      H2             22.5899713709      -18.1019494476        5.3509151574  W2        481             0.0000000000
      1444       482  TIP3      OH2            14.3951413709      -18.7955594476        3.8256751574  W2        482             0.0000000000
      1445       482  TIP3      H1             14.4826013709      -17.9690994476        4.3005851574  W2        482             0.0000000000
      1446       482  TIP3      H2             13.5316513709      -19.1251794476        4.0746051574  W2        482             0.0000000000
      1447       483  TIP3      OH2            14.8097213709      -15.0231894476       -6.3682648426  W2        483             0.0000000000
      1448       483  TIP3      H1             14.7343213709      -15.1444694476       -7.3147448426  W2        483             0.0000000000
      1449       483  TIP3      H2             14.8425913709      -14.0739194476       -6.2498048426  W2        483             0.0000000000
      1450       484  TIP3      OH2             8.4631013709      -16.2344894476       -4.5873648426  W2        484             0.0000000000
      1451       484  TIP3      H1              8.6151413709      -16.5824494476       -3.7087148426  W2        484             0.0000000000
      1452       484  TIP3      H2              7.6121413709      -16.5907594476       -4.8426448426  W2        484             0.0000000000
      1453       485  TIP3      OH2            17.9113213709      -15.8691694476       -9.3660248426  W2        485             0.0000000000
      1454       485  TIP3      H1             18.2861613709      -16.6135594476       -9.8367648426  W2        485             0.0000000000
      1455       485  TIP3      H2             17.9156913709      -16.1391094476       -8.4476948426  W2        485             0.0000000000
      1456       486  TIP3      OH2            17.5801313709      -15.9434594476       -6.6168048426  W2        486             0.0000000000
      1457       486  TIP3      H1             16.6451113709      -15.8432694476       -6.4381048426  W2        486             0.0000000000
      1458       486  TIP3      H2             17.8603213709      -16.6528594476       -6.0384848426  W2        486             0.0000000000
      1459       487  TIP3      OH2            20.5687213709      -26.8762294476        5.4297551574  W2        487             0.0000000000
      1460       487  TIP3      H1             20.1614013709      -26.3956694476        4.7090851574  W2        487             0.0000000000
      1461       487  TIP3      H2             20.6092913709      -27.7816294476        5.1218351574  W2        487             0.0000000000
      1462       488  TIP3      OH2             7.7176713709      -20.4922894476        3.4264251574  W2        488             0.0000000000
      1463       488  TIP3      H1              7.9338013709      -20.8537294476        4.2860051574  W2        488             0.0000000000
      1464       488  TIP3      H2              6.8621413709      -20.8669094476        3.2167751574  W2        488             0.0000000000
      1465       489  TIP3      OH2            10.3364713709      -32.0222394476       -0.5781548426  W2        489             0.0000000000
      1466       489  TIP3      H1              9.4748413709      -32.1094194476       -0.9858648426  W2        489             0.0000000000
      1467       489  TIP3      H2             10.3140413709      -31.1662294476       -0.1503948426  W2        489             0.0000000000
      1468       490  TIP3      OH2            14.9992513709      -32.3001994476        2.7965451574  W2        490             0.0000000000
      1469       490  TIP3      H1             15.4195613709      -32.7154894476        3.5496051574  W2        490             0.0000000000
      1470       490  TIP3      H2             14.0662113709      -32.4788694476        2.9137451574  W2        490             0.0000000000
      1471       491  TIP3      OH2            18.3257413709      -28.5446794476        3.6499951574  W2        491             0.0000000000
      1472       491  TIP3      H1             17.8116913709      -28.6704594476        4.4475951574  W2        491             0.0000000000
      1473       491  TIP3      H2             18.1702113709      -27.6323694476        3.4056151574  W2        491             0.0000000000
      1474       492  TIP3      OH2            19.0882313709      -23.6836794476      -10.5887048426  W2        492             0.0000000000
      1475       492  TIP3      H1             19.1303113709      -23.9062894476      -11.5187048426  W2        492             0.0000000000
      1476       492  TIP3      H2             19.9374413709      -23.2849694476      -10.3987148426  W2        492             0.0000000000
      1477       493  TIP3      OH2            14.6609813709      -29.8078594476       -9.9183748426  W2        493             0.0000000000
      1478       493  TIP3      H1             14.4074613709      -29.7886994476       -8.9955648426  W2        493             0.0000000000
      1479       493  TIP3      H2             14.4041913709      -30.6793194476      -10.2197548426  W2        493             0.0000000000
      1480       494  TIP3      OH2            10.4274813709      -27.0567894476        0.5168651574  W2        494             0.0000000000
      1481       494  TIP3      H1              9.7856913709      -27.0970594476        1.2258751574  W2        494             0.0000000000
      1482       494  TIP3      H2             10.4646813709      -26.1303194476        0.2791651574  W2        494             0.0000000000
      1483       495  TIP3      OH2            10.4243913709      -26.8357794476       -4.5711348426  W2        495             0.0000000000
      1484       495  TIP3      H1              9.5316813709      -27.1761694476       -4.6297548426  W2        495             0.0000000000
      1485       495  TIP3      H2             10.8750513709      -27.2126894476       -5.3268148426  W2        495             0.0000000000
      1486       496  TIP3      OH2            15.9599413709      -26.4197494476       -5.7540548426  W2        496             0.0000000000
      1487       496  TIP3      H1             15.5509713709      -25.6048894476       -6.0455748426  W2        496             0.0000000000
      1488       496  TIP3      H2             16.6805613709      -26.5597394476       -6.3683448426  W2        496             0.0000000000
      1489       497  TIP3      OH2            15.0621013709      -26.2441094476        5.7340151574  W2        497             0.0000000000
      1490       497  TIP3      H1             14.4994813709      -26.9489494476        6.0547951574  W2        497             0.0000000000
      1491       497  TIP3      H2             15.8884413709      -26.3649194476        6.2017751574  W2        497             0.0000000000
      1492       498  TIP3      OH2            16.9647113709      -26.9737094476       -2.9400848426  W2        498             0.0000000000
      1493       498  TIP3      H1             16.7691613709      -26.3680294476       -3.6550248426  W2        498             0.0000000000
      1494       498  TIP3      H2             17.1459713709      -27.8071894476       -3.3744548426  W2        498             0.0000000000
      1495       499  TIP3      OH2             8.1775313709      -26.7364394476        2.3840651574  W2        499             0.0000000000
      1496       499  TIP3      H1              8.1394713709      -26.3362794476        3.2527751574  W2        499             0.0000000000
      1497       499  TIP3      H2              7.6866413709      -27.5531994476        2.4743551574  W2        499             0.0000000000
      1498       500  TIP3      OH2            11.5432713709      -29.3622094476      -10.8173348426  W2        500             0.0000000000
      1499       500  TIP3      H1             11.1123413709      -29.8071994476      -10.0875948426  W2        500             0.0000000000
      1500       500  TIP3      H2             10.8251413709      -28.9905794476      -11.3295848426  W2        500             0.0000000000
      1501       501  TIP3      OH2             4.7856113709      -29.6202594476       -3.7654648426  W2        501             0.0000000000
      1502       501  TIP3      H1              5.4163813709      -29.6490494476       -3.0460748426  W2        501             0.0000000000
      1503       501  TIP3      H2              5.2350413709      -30.0453894476       -4.4958748426  W2        501             0.0000000000
      1504       502  TIP3      OH2             6.0598213709      -28.8740594476       -8.3414248426  W2        502             0.0000000000
      1505       502  TIP3      H1              6.5339913709      -28.2830694476       -8.9263348426  W2        502             0.0000000000
      1506       502  TIP3      H2              5.3424613709      -28.3437694476       -7.9944148426  W2        502             0.0000000000
      1507       503  TIP3      OH2            16.2286313709      -25.3355794476        1.7311551574  W2        503             0.0000000000
      1508       503  TIP3      H1             16.5521113709      -25.9666094476        1.0882051574  W2        503             0.0000000000
      1509       503  TIP3      H2             15.7885613709      -25.8703594476        2.3918951574  W2        503             0.0000000000
      1510       504  TIP3      OH2            13.0059213709      -29.4080294476       -3.4847248426  W2        504             0.0000000000
      1511       504  TIP3      H1             12.0950313709      -29.3513494476       -3.1961248426  W2        504             0.0000000000
      1512       504  TIP3      H2             13.5112113709      -29.4684794476       -2.6740048426  W2        504             0.0000000000
      1513       505  TIP3      OH2             7.8342613709      -27.7793994476       -4.6579648426  W2        505             0.0000000000
      1514       505  TIP3      H1              6.9450613709      -27.6798494476       -4.9980048426  W2        505             0.0000000000
      1515       505  TIP3      H2              8.1307513709      -28.6210994476       -5.0041748426  W2        505             0.0000000000
      1516       506  TIP3      OH2            11.4874413709      -27.7791394476       -7.0015048426  W2        506             0.0000000000
      1517       506  TIP3      H1             12.4189913709      -27.6501394476       -6.8231948426  W2        506             0.0000000000
      1518       506  TIP3      H2             11.2724713709      -27.1097094476       -7.6510348426  W2        506             0.0000000000
      1519       507  TIP3      OH2            17.4111113709      -30.1733994476       -0.2205448426  W2        507             0.0000000000
      1520       507  TIP3      H1             16.7342713709      -30.0420894476        0.4434251574  W2        507             0.0000000000
      1521       507  TIP3      H2             16.9256013709      -30.3284494476       -1.0307748426  W2        507             0.0000000000
      1522       508  TIP3      OH2            10.1614613709      -26.5849194476       -9.4348948426  W2        508             0.0000000000
      1523       508  TIP3      H1              9.6189713709      -26.9645394476      -10.1261348426  W2        508             0.0000000000
      1524       508  TIP3      H2             10.9949513709      -26.3904494476       -9.8634848426  W2        508             0.0000000000
      1525       509  TIP3      OH2            20.6986213709      -14.5018594476        6.0562151574  W2        509             0.0000000000
      1526       509  TIP3      H1             20.8984913709      -14.0776694476        5.2217451574  W2        509             0.0000000000
      1527       509  TIP3      H2             21.3539913709      -14.1580394476        6.6632551574  W2        509             0.0000000000
      1528       510  TIP3      OH2             8.2966013709      -22.0277294476        5.6642651574  W2        510             0.0000000000
      1529       510  TIP3      H1              9.0288413709      -21.7731394476        6.2257151574  W2        510             0.0000000000
      1530       510  TIP3      H2              7.5164713709      -21.8231894476        6.1798051574  W2        510             0.0000000000
      1531       511  TIP3      OH2            14.3258913709      -26.6207294476       -1.5977648426  W2        511             0.0000000000
      1532       511  TIP3      H1             14.8902313709      -27.1670694476       -2.1448048426  W2        511             0.0000000000
      1533       511  TIP3      H2             14.1782313709      -27.1425394476       -0.8090048426  W2        511             0.0000000000
      1534       512  TIP3      OH2             9.3278613709      -30.4841194476       -5.1792848426  W2        512             0.0000000000
      1535       512  TIP3      H1              9.0108113709      -31.3865894476       -5.2147448426  W2        512             0.0000000000
      1536       512  TIP3      H2             10.1092713709      -30.4823794476       -5.7321248426  W2        512             0.0000000000
      1537       513  TIP3      OH2            12.9524813709      -28.2321194476        0.8162751574  W2        513             0.0000000000
      1538       513  TIP3      H1             12.1170113709      -27.7781694476        0.9265151574  W2        513             0.0000000000
      1539       513  TIP3      H2             13.4765413709      -27.9562694476        1.5682651574  W2        513             0.0000000000
      1540       514  TIP3      OH2            13.4967413709      -22.0193494476       -7.4990848426  W2        514             0.0000000000
      1541       514  TIP3      H1             12.7518413709      -22.5268194476       -7.8212948426  W2        514             0.0000000000
      1542       514  TIP3      H2             13.3624613709      -21.9705494476       -6.5526048426  W2        514             0.0000000000
      1543       515  TIP3      OH2            20.6466313709      -22.8865294476        1.2876751574  W2        515             0.0000000000
      1544       515  TIP3      H1             21.2885113709      -22.4298994476        0.7438951574  W2        515             0.0000000000
      1545       515  TIP3      H2             19.8163213709      -22.7732894476        0.8250851574  W2        515             0.0000000000
      1546       516  TIP3      OH2            17.3944213709      -29.2053594476       -9.2998248426  W2        516             0.0000000000
      1547       516  TIP3      H1             16.4558413709      -29.0937994476       -9.4509448426  W2        516             0.0000000000
      1548       516  TIP3      H2             17.6916313709      -28.3486694476       -8.9932548426  W2        516             0.0000000000
      1549       517  TIP3      OH2            15.0159513709      -21.8350194476        3.7378251574  W2        517             0.0000000000
      1550       517  TIP3      H1             14.6705613709      -22.2167794476        4.5447851574  W2        517             0.0000000000
      1551       517  TIP3      H2             14.8159613709      -20.9016594476        3.8091151574  W2        517             0.0000000000
      1552       518  TIP3      OH2            18.1127713709      -27.3380894476       -7.6390848426  W2        518             0.0000000000
      1553       518  TIP3      H1             19.0046713709      -27.4755894476       -7.3199648426  W2        518             0.0000000000
      1554       518  TIP3      H2             18.1691313709      -26.5474794476       -8.1757348426  W2        518             0.0000000000
      1555       519  TIP3      OH2             8.6215713709      -22.7243494476       -1.7292948426  W2        519             0.0000000000
      1556       519  TIP3      H1              9.3662913709      -22.7267794476       -2.3306448426  W2        519             0.0000000000
      1557       519  TIP3      H2              8.6992313709      -23.5479694476       -1.2477848426  W2        519             0.0000000000
      1558       520  TIP3      OH2            15.6221513709      -20.5609194476       -8.4736248426  W2        520             0.0000000000
      1559       520  TIP3      H1             15.3269913709      -19.7341294476       -8.0921448426  W2        520             0.0000000000
      1560       520  TIP3      H2             14.9191513709      -21.1802294476       -8.2774848426  W2        520             0.0000000000
      1561       521  TIP3      OH2             5.6295413709      -24.2636594476        3.5855551574  W2        521             0.0000000000
      1562       521  TIP3      H1              5.8524013709      -24.6816994476        4.4173051574  W2        521             0.0000000000
      1563       521  TIP3      H2              5.0275513709      -24.8761594476        3.1628351574  W2        521             0.0000000000
      1564       522  TIP3      OH2            12.6460313709      -24.7466694476        5.7985251574  W2        522             0.0000000000
      1565       522  TIP3      H1             12.3501113709      -24.9123694476        4.9034351574  W2        522             0.0000000000
      1566       522  TIP3      H2             13.5775513709      -24.9666394476        5.7879151574  W2        522             0.0000000000
      1567       523  TIP3      OH2            17.2663113709      -19.3734694476        3.6883251574  W2        523             0.0000000000
      1568       523  TIP3      H1             16.3657413709      -19.1902094476        3.4207151574  W2        523             0.0000000000
      1569       523  TIP3      H2             17.3004213709      -19.1145394476        4.6092051574  W2        523             0.0000000000
      1570       524  TIP3      OH2            22.9976413709      -27.1286794476       -7.9444148426  W2        524             0.0000000000
      1571       524  TIP3      H1             22.4432713709      -27.5248794476       -8.6166648426  W2        524             0.0000000000
      1572       524  TIP3      H2             23.0980013709      -26.2181594476       -8.2220848426  W2        524             0.0000000000
      1573       525  TIP3      OH2            22.9608413709      -21.3285094476        4.8927351574  W2        525             0.0000000000
      1574       525  TIP3      H1             22.1096913709      -21.0901294476        4.5253751574  W2        525             0.0000000000
      1575       525  TIP3      H2             23.5511813709      -21.3451894476        4.1394451574  W2        525             0.0000000000
      1576       526  TIP3      OH2            21.2928113709      -18.3426394476       -7.4792048426  W2        526             0.0000000000
      1577       526  TIP3      H1             20.9199213709      -19.1682594476       -7.1701448426  W2        526             0.0000000000
      1578       526  TIP3      H2             21.5701613709      -18.5256994476       -8.3768648426  W2        526             0.0000000000
      1579       527  TIP3      OH2            18.4532013709      -23.5346894476       -0.4580148426  W2        527             0.0000000000
      1580       527  TIP3      H1             17.5248913709      -23.7664994476       -0.4850848426  W2        527             0.0000000000
      1581       527  TIP3      H2             18.9043113709      -24.3117094476       -0.7881348426  W2        527             0.0000000000
      1582       528  TIP3      OH2            10.9965113709      -19.2065294476       -4.3251448426  W2        528             0.0000000000
      1583       528  TIP3      H1             11.5237313709      -18.4330894476       -4.5252648426  W2        528             0.0000000000
      1584       528  TIP3      H2             10.1163613709      -18.9816094476       -4.6267448426  W2        528             0.0000000000
      1585       529  TIP3      OH2             6.7512813709      -24.3441194476       -9.7379048426  W2        529             0.0000000000
      1586       529  TIP3      H1              7.3672713709      -23.7173994476       -9.3584248426  W2        529             0.0000000000
      1587       529  TIP3      H2              5.8895413709      -24.0281394476       -9.4662548426  W2        529             0.0000000000
      1588       530  TIP3      OH2            12.4237413709      -21.5435394476       -4.7487148426  W2        530             0.0000000000
      1589       530  TIP3      H1             12.1827413709      -20.6180994476       -4.7071848426  W2        530             0.0000000000
      1590       530  TIP3      H2             11.6831013709      -22.0024094476       -4.3523248426  W2        530             0.0000000000
      1591       531  TIP3      OH2            12.9384013709      -17.3941794476        1.5663951574  W2        531             0.0000000000
      1592       531  TIP3      H1             13.3008713709      -16.5396194476        1.3328351574  W2        531             0.0000000000
      1593       531  TIP3      H2             13.4699213709      -17.6860194476        2.3070251574  W2        531             0.0000000000
      1594       532  TIP3      OH2            11.1068213709      -16.5217794476       -5.2034948426  W2        532             0.0000000000
      1595       532  TIP3      H1             10.1568713709      -16.4160394476       -5.1521648426  W2        532             0.0000000000
      1596       532  TIP3      H2             11.4586313709      -15.7010394476       -4.8587448426  W2        532             0.0000000000
      1597       533  TIP3      OH2            16.4824813709      -21.2951094476        1.2669551574  W2        533             0.0000000000
      1598       533  TIP3      H1             16.0566113709      -21.5229394476        2.0933551574  W2        533             0.0000000000
      1599       533  TIP3      H2             17.0630613709      -22.0339294476        1.0844851574  W2        533             0.0000000000
      1600       534  TIP3      OH2            18.6853713709      -20.3660594476       -9.6591448426  W2        534             0.0000000000
      1601       534  TIP3      H1             19.0386813709      -20.7460794476       -8.8547948426  W2        534             0.0000000000
      1602       534  TIP3      H2             17.7367213709      -20.4595794476       -9.5722148426  W2        534             0.0000000000
      1603       535  TIP3      OH2            19.1409013709      -16.7431594476        3.7364351574  W2        535             0.0000000000
      1604       535  TIP3      H1             18.5392213709      -17.2988694476        3.2410651574  W2        535             0.0000000000
      1605       535  TIP3      H2             19.4222713709      -16.0761794476        3.1101751574  W2        535             0.0000000000
      1606       536  TIP3      OH2            23.1888113709      -15.8868094476       -9.4581248426  W2        536             0.0000000000
      1607       536  TIP3      H1             23.9326013709      -15.3007594476       -9.5979648426  W2        536             0.0000000000
      1608       536  TIP3      H2             22.4946213709      -15.3182294476       -9.1248848426  W2        536             0.0000000000
      1609       537  TIP3      OH2             7.2634913709      -29.5103894476        3.1436951574  W2        537             0.0000000000
      1610       537  TIP3      H1              6.3707213709      -29.1718494476        3.0760951574  W2        537             0.0000000000
      1611       537  TIP3      H2              7.1647713709      -30.3657794476        3.5617751574  W2        537             0.0000000000
      1612       538  TIP3      OH2            19.5513013709      -21.6938594476       -7.4323548426  W2        538             0.0000000000
      1613       538  TIP3      H1             19.2740613709      -22.4219294476       -6.8762448426  W2        538             0.0000000000
      1614       538  TIP3      H2             20.4786013709      -21.5746594476       -7.2270948426  W2        538             0.0000000000
      1615       539  TIP3      OH2             6.9146913709      -17.7059494476        1.5786351574  W2        539             0.0000000000
      1616       539  TIP3      H1              7.1317213709      -18.6377094476        1.5476051574  W2        539             0.0000000000
      1617       539  TIP3      H2              7.1610413709      -17.4314494476        2.4619151574  W2        539             0.0000000000
      1618       540  TIP3      OH2            12.7761513709      -19.2544494476      -11.2121448426  W2        540             0.0000000000
      1619       540  TIP3      H1             13.0151313709      -20.0026394476      -11.7592548426  W2        540             0.0000000000
      1620       540  TIP3      H2             12.5072813709      -19.6422794476      -10.3793648426  W2        540             0.0000000000
      1621       541  TIP3      OH2            11.7132113709      -19.6840694476       -8.7558848426  W2        541             0.0000000000
      1622       541  TIP3      H1             11.8600113709      -20.2040894476       -7.9657948426  W2        541             0.0000000000
      1623       541  TIP3      H2             11.7103813709      -18.7773094476       -8.4492948426  W2        541             0.0000000000
      1624       542  TIP3      OH2             8.1663213709      -22.4317394476       -8.2453448426  W2        542             0.0000000000
      1625       542  TIP3      H1              7.4802513709      -22.0794894476       -7.6783748426  W2        542             0.0000000000
      1626       542  TIP3      H2              8.6891113709      -21.6687794476       -8.4919148426  W2        542             0.0000000000
      1627       543  TIP3      OH2            15.9978313709      -29.7693594476        2.0335551574  W2        543             0.0000000000
      1628       543  TIP3      H1             16.6966213709      -29.6954894476        2.6835251574  W2        543             0.0000000000
      1629       543  TIP3      H2             15.6169713709      -30.6338594476        2.1878451574  W2        543             0.0000000000
      1630       544  TIP3      OH2            16.7823213709      -30.1171894476       -6.8692148426  W2        544             0.0000000000
      1631       544  TIP3      H1             17.0021513709      -29.6456494476       -7.6726748426  W2        544             0.0000000000
      1632       544  TIP3      H2             17.3407213709      -29.7229294476       -6.1991548426  W2        544             0.0000000000
      1633       545  TIP3      OH2            14.4509313709      -17.9867094476       -8.0064648426  W2        545             0.0000000000
      1634       545  TIP3      H1             13.6345413709      -17.4897394476       -7.9540348426  W2        545             0.0000000000
      1635       545  TIP3      H2             14.9805613709      -17.5113594476       -8.6465848426  W2        545             0.0000000000
      1636       546  TIP3      OH2            13.9823113709      -28.3893094476       -6.0343748426  W2        546             0.0000000000
      1637       546  TIP3      H1             14.7945713709      -27.8849894476       -5.9882048426  W2        546             0.0000000000
      1638       546  TIP3      H2             13.7376113709      -28.5343394476       -5.1204148426  W2        546             0.0000000000
      1639       547  TIP3      OH2            14.5179513709      -27.4030394476        3.1502851574  W2        547             0.0000000000
      1640       547  TIP3      H1             14.6369813709      -26.8294994476        3.9073251574  W2        547             0.0000000000
      1641       547  TIP3      H2             15.1734113709      -28.0910994476        3.2650651574  W2        547             0.0000000000
      1642       548  TIP3      OH2            14.8659813709      -31.3080094476       -5.0962648426  W2        548             0.0000000000
      1643       548  TIP3      H1             14.5193313709      -30.6909494476       -4.4518348426  W2        548             0.0000000000
      1644       548  TIP3      H2             15.5246713709      -30.8074394476       -5.5777148426  W2        548             0.0000000000
      1645       549  TIP3      OH2            11.7892413709      -16.9429894476       -8.0247748426  W2        549             0.0000000000
      1646       549  TIP3      H1             11.9501113709      -16.1432394476       -8.5255148426  W2        549             0.0000000000
      1647       549  TIP3      H2             11.5920213709      -16.6363894476       -7.1397148426  W2        549             0.0000000000
      1648       550  TIP3      OH2            10.5236813709      -30.2450694476       -8.4090148426  W2        550             0.0000000000
      1649       550  TIP3      H1             10.4401613709      -29.3567594476       -8.0623748426  W2        550             0.0000000000
      1650       550  TIP3      H2             11.4137113709      -30.5103994476       -8.1773348426  W2        550             0.0000000000
      1651       551  TIP3      OH2            20.7225313709      -29.4960094476        3.9852551574  W2        551             0.0000000000
      1652       551  TIP3      H1             19.8061113709      -29.2338394476        3.8976251574  W2        551             0.0000000000
      1653       551  TIP3      H2             21.0580313709      -29.4991094476        3.0887851574  W2        551             0.0000000000
      1654       552  TIP3      OH2            19.3246313709      -25.7459094476       -1.9190148426  W2        552             0.0000000000
      1655       552  TIP3      H1             18.5270713709      -26.1608894476       -2.2475148426  W2        552             0.0000000000
      1656       552  TIP3      H2             19.7697413709      -26.4365394476       -1.4279648426  W2        552             0.0000000000
      1657       553  TIP3      OH2             8.7822113709      -19.8178494476       -9.3485648426  W2        553             0.0000000000
      1658       553  TIP3      H1              9.3743613709      -19.1183694476       -9.0723248426  W2        553             0.0000000000
      1659       553  TIP3      H2              9.2415113709      -20.2508994476      -10.0681048426  W2        553             0.0000000000
      1660       554  TIP3      OH2             7.0981313709      -27.1535494476      -10.2326248426  W2        554             0.0000000000
      1661       554  TIP3      H1              7.0533913709      -26.2142394476      -10.0539248426  W2        554             0.0000000000
      1662       554  TIP3      H2              6.2104513709      -27.3890594476      -10.5024148426  W2        554             0.0000000000
      1663       555  TIP3      OH2            20.4110913709      -16.4896594476       -0.2966648426  W2        555             0.0000000000
      1664       555  TIP3      H1             20.2555213709      -15.8112194476       -0.9537348426  W2        555             0.0000000000
      1665       555  TIP3      H2             21.3437313709      -16.4177294476       -0.0936048426  W2        555             0.0000000000
      1666       556  TIP3      OH2             7.9063313709      -32.3718894476       -1.5595248426  W2        556             0.0000000000
      1667       556  TIP3      H1              7.6773113709      -32.3126394476       -2.4870248426  W2        556             0.0000000000
      1668       556  TIP3      H2              7.4636713709      -33.1633394476       -1.2531148426  W2        556             0.0000000000
      1669       557  TIP3      OH2             6.8366613709      -18.4311794476       -5.3989448426  W2        557             0.0000000000
      1670       557  TIP3      H1              6.0045213709      -17.9589094476       -5.3718048426  W2        557             0.0000000000
      1671       557  TIP3      H2              7.3824913709      -17.9214194476       -5.9976348426  W2        557             0.0000000000
      1672       558  TIP3      OH2             6.1250313709      -15.8188094476        5.9308551574  W2        558             0.0000000000
      1673       558  TIP3      H1              6.6652513709      -16.0354094476        6.6907751574  W2        558             0.0000000000
      1674       558  TIP3      H2              5.6438313709      -16.6242094476        5.7411051574  W2        558             0.0000000000
      1675       559  TIP3      OH2            10.7223713709      -16.8993694476        7.5512751574  W2        559             0.0000000000
      1676       559  TIP3      H1             11.4900913709      -17.3582894476        7.8921951574  W2        559             0.0000000000
      1677       559  TIP3      H2             10.7009913709      -17.1253894476        6.6213951574  W2        559             0.0000000000
      1678       560  TIP3      OH2            14.8143313709      -17.3913094476      -11.0735448426  W2        560             0.0000000000
      1679       560  TIP3      H1             14.1704313709      -18.0224494476      -10.7521748426  W2        560             0.0000000000
      1680       560  TIP3      H2             15.5761613709      -17.9225094476      -11.3051948426  W2        560             0.0000000000
      1681       561  TIP3      OH2            17.2992413709      -18.5192594476        6.2804251574  W2        561             0.0000000000
      1682       561  TIP3      H1             16.9481913709      -19.3759594476        6.5234651574  W2        561             0.0000000000
      1683       561  TIP3      H2             18.0255613709      -18.3765894476        6.8873251574  W2        561             0.0000000000
      1684       562  TIP3      OH2            19.4186213709      -17.5743194476      -10.8397448426  W2        562             0.0000000000
      1685       562  TIP3      H1             19.7016613709      -18.3687994476      -10.3870548426  W2        562             0.0000000000
      1686       562  TIP3      H2             20.1584113709      -17.3412194476      -11.4006348426  W2        562             0.0000000000
      1687       563  TIP3      OH2             6.0319813709      -22.0083994476        6.8852851574  W2        563             0.0000000000
      1688       563  TIP3      H1              6.1760313709      -22.9103294476        6.5989551574  W2        563             0.0000000000
      1689       563  TIP3      H2              5.2597213709      -21.7221894476        6.3975151574  W2        563             0.0000000000
      1690       564  TIP3      OH2            10.3733513709      -21.6648294476      -10.9822548426  W2        564             0.0000000000
      1691       564  TIP3      H1             10.4377613709      -22.4588694476      -10.4516148426  W2        564             0.0000000000
      1692       564  TIP3      H2             11.0262713709      -21.7835494476      -11.6720548426  W2        564             0.0000000000
      1693       565  TIP3      OH2            12.6875913709      -22.0385894476        6.3179251574  W2        565             0.0000000000
      1694       565  TIP3      H1             12.3589713709      -21.7677794476        5.4606651574  W2        565             0.0000000000
      1695       565  TIP3      H2             12.8394113709      -22.9796094476        6.2304251574  W2        565             0.0000000000
      1696       566  TIP3      OH2            15.7256913709      -20.6176594476      -11.2464548426  W2        566             0.0000000000
      1697       566  TIP3      H1             15.4571013709      -20.4374494476      -10.3455648426  W2        566             0.0000000000
      1698       566  TIP3      H2             15.5192513709      -21.5430394476      -11.3778748426  W2        566             0.0000000000
      1699       567  TIP3      OH2            18.4221113709      -22.1228594476        3.7011551574  W2        567             0.0000000000
      1700       567  TIP3      H1             19.1675913709      -21.5344894476        3.5815551574  W2        567             0.0000000000
      1701       567  TIP3      H2             17.6647913709      -21.5408894476        3.7644651574  W2        567             0.0000000000
      1702       568  TIP3      OH2             6.8646313709      -24.8080694476        6.3052151574  W2        568             0.0000000000
      1703       568  TIP3      H1              7.2727513709      -25.6654094476        6.1842751574  W2        568             0.0000000000
      1704       568  TIP3      H2              6.6043913709      -24.7939394476        7.2262451574  W2        568             0.0000000000
      1705       569  TIP3      OH2            11.5227313709      -23.6922094476       -8.6764548426  W2        569             0.0000000000
      1706       569  TIP3      H1             11.0629313709      -24.1763794476       -7.9906048426  W2        569             0.0000000000
      1707       569  TIP3      H2             11.7776013709      -24.3606694476       -9.3124048426  W2        569             0.0000000000
      1708       570  TIP3      OH2            10.8116613709      -25.7994994476        3.6795051574  W2        570             0.0000000000
      1709       570  TIP3      H1             10.1932713709      -25.1248394476        3.9599751574  W2        570             0.0000000000
      1710       570  TIP3      H2             11.1557813709      -25.4781094476        2.8461251574  W2        570             0.0000000000
      1711       571  TIP3      OH2            12.5937713709      -25.4490294476      -10.4141348426  W2        571             0.0000000000
      1712       571  TIP3      H1             12.4132713709      -25.6039094476      -11.3413048426  W2        571             0.0000000000
      1713       571  TIP3      H2             13.5438213709      -25.3411594476      -10.3693448426  W2        571             0.0000000000
      1714       572  TIP3      OH2            15.8314813709      -23.3279694476        6.9569851574  W2        572             0.0000000000
      1715       572  TIP3      H1             16.7846013709      -23.2440594476        6.9295851574  W2        572             0.0000000000
      1716       572  TIP3      H2             15.6709413709      -24.0397894476        7.5764751574  W2        572             0.0000000000
      1717       573  TIP3      OH2            21.9836013709      -23.0946094476      -10.9683248426  W2        573             0.0000000000
      1718       573  TIP3      H1             21.7100813709      -23.5190594476      -11.7814948426  W2        573             0.0000000000
      1719       573  TIP3      H2             22.0230113709      -22.1631594476      -11.1852848426  W2        573             0.0000000000
      1720       574  TIP3      OH2            11.1510313709      -28.4444194476        4.7618151574  W2        574             0.0000000000
      1721       574  TIP3      H1             11.3011213709      -29.1732894476        4.1597851574  W2        574             0.0000000000
      1722       574  TIP3      H2             11.1532713709      -27.6672494476        4.2030351574  W2        574             0.0000000000
      1723       575  TIP3      OH2            11.5636013709      -30.0748394476        2.2545551574  W2        575             0.0000000000
      1724       575  TIP3      H1             12.0993513709      -29.6231694476        1.6024851574  W2        575             0.0000000000
      1725       575  TIP3      H2             10.7115613709      -30.1828594476        1.8319651574  W2        575             0.0000000000
      1726       576  TIP3      OH2            13.1454413709      -24.6352194476        2.4940751574  W2        576             0.0000000000
      1727       576  TIP3      H1             13.8959213709      -24.7914694476        1.9208551574  W2        576             0.0000000000
      1728       576  TIP3      H2             12.8062713709      -23.7835594476        2.2186251574  W2        576             0.0000000000
      1729       577  TIP3      OH2            17.5610613709      -26.8200394476        7.5226051574  W2        577             0.0000000000
      1730       577  TIP3      H1             17.7531913709      -27.7510994476        7.4110551574  W2        577             0.0000000000
      1731       577  TIP3      H2             18.4186913709      -26.3950894476        7.5121451574  W2        577             0.0000000000
      1732       578  TIP3      OH2            18.8777813709      -24.0315194476        5.5998751574  W2        578             0.0000000000
      1733       578  TIP3      H1             18.5962813709      -23.3220594476        5.0222551574  W2        578             0.0000000000
      1734       578  TIP3      H2             19.8202113709      -24.1042194476        5.4489951574  W2        578             0.0000000000
      1735       579  TIP3      OH2             9.6296613709      -27.2460694476        6.6733751574  W2        579             0.0000000000
      1736       579  TIP3      H1              8.8625613709      -27.7785894476        6.4631351574  W2        579             0.0000000000
      1737       579  TIP3      H2             10.3085613709      -27.5560294476        6.0740051574  W2        579             0.0000000000
      1738       580  TIP3      OH2            12.3691513709      -32.6182694476        2.6859151574  W2        580             0.0000000000
      1739       580  TIP3      H1             12.2711113709      -31.6719494476        2.5805351574  W2        580             0.0000000000
      1740       580  TIP3      H2             11.6267713709      -32.9908894476        2.2102651574  W2        580             0.0000000000
      1741       581  TIP3      OH2            13.6332013709      -28.2967294476        6.2497551574  W2        581             0.0000000000
      1742       581  TIP3      H1             13.3977413709      -28.5160594476        7.1512451574  W2        581             0.0000000000
      1743       581  TIP3      H2             12.8498913709      -28.5036094476        5.7400051574  W2        581             0.0000000000
      1744       582  TIP3      OH2            16.3488613709      -29.1693794476        5.3251051574  W2        582             0.0000000000
      1745       582  TIP3      H1             15.4014013709      -29.1374094476        5.4574351574  W2        582             0.0000000000
      1746       582  TIP3      H2             16.6615313709      -29.7946694476        5.9789251574  W2        582             0.0000000000
      1747       583  TIP3      OH2            17.9830113709      -30.5352694476        7.3302951574  W2        583             0.0000000000
      1748       583  TIP3      H1             17.8861913709      -31.4875394476        7.3244851574  W2        583             0.0000000000
      1749       583  TIP3      H2             17.6613213709      -30.2665894476        8.1908451574  W2        583             0.0000000000
      1750       584  TIP3      OH2             7.8099413709      -29.3256894476        6.3778451574  W2        584             0.0000000000
      1751       584  TIP3      H1              8.0216813709      -30.0320794476        5.7675951574  W2        584             0.0000000000
      1752       584  TIP3      H2              7.6986913709      -29.7630894476        7.2219651574  W2        584             0.0000000000
      1753       585  TIP3      OH2            12.5909613709      -33.3245294476        5.3571951574  W2        585             0.0000000000
      1754       585  TIP3      H1             13.3028013709      -33.9643094476        5.3431051574  W2        585             0.0000000000
      1755       585  TIP3      H2             12.4900013709      -33.0576994476        4.4435051574  W2        585             0.0000000000
      1756       586  TIP3      OH2            12.9447113709      -31.6416894476        7.4108251574  W2        586             0.0000000000
      1757       586  TIP3      H1             12.8129313709      -32.1173094476        6.5906751574  W2        586             0.0000000000
      1758       586  TIP3      H2             12.3454513709      -30.8973294476        7.3555351574  W2        586             0.0000000000
      1759       587  TIP3      OH2            12.4909413709      -14.7586594476       -9.4127748426  W2        587             0.0000000000
      1760       587  TIP3      H1             13.4240113709      -14.6007894476       -9.2689348426  W2        587             0.0000000000
      1761       587  TIP3      H2             12.2268213709      -14.0833594476      -10.0376248426  W2        587             0.0000000000
      1762       588  TIP3      OH2             6.0594313709      -20.1222794476       -9.9299648426  W2        588             0.0000000000
      1763       588  TIP3      H1              6.9733513709      -20.0433894476       -9.6565748426  W2        588             0.0000000000
      1764       588  TIP3      H2              6.0667413709      -20.8093194476      -10.5964048426  W2        588             0.0000000000
      1765       589  TIP3      OH2             4.7084913709      -14.7294294476       -4.8525748426  W2        589             0.0000000000
      1766       589  TIP3      H1              4.0612013709      -15.1912594476       -5.3854548426  W2        589             0.0000000000
      1767       589  TIP3      H2              5.0629513709      -15.4010994476       -4.2699548426  W2        589             0.0000000000
      1768       590  TIP3      OH2             5.5784113709      -16.6487294476       -3.0479548426  W2        590             0.0000000000
      1769       590  TIP3      H1              5.2440913709      -17.5289994476       -2.8759348426  W2        590             0.0000000000
      1770       590  TIP3      H2              5.8006513709      -16.3032294476       -2.1833948426  W2        590             0.0000000000
      1771       591  TIP3      OH2            23.1268913709      -15.8390894476       -0.0674748426  W2        591             0.0000000000
      1772       591  TIP3      H1             23.1055613709      -15.6542494476        0.8714651574  W2        591             0.0000000000
      1773       591  TIP3      H2             23.8175113709      -15.2706894476       -0.4083348426  W2        591             0.0000000000
      1774       592  TIP3      OH2            22.6901813709      -16.2719794476        2.8544351574  W2        592             0.0000000000
      1775       592  TIP3      H1             22.2030513709      -17.0075694476        2.4831751574  W2        592             0.0000000000
      1776       592  TIP3      H2             23.2394513709      -16.6655894476        3.5323751574  W2        592             0.0000000000
      1777       593  TIP3      OH2            21.1409113709      -20.4821694476        7.4924651574  W2        593             0.0000000000
      1778       593  TIP3      H1             20.2750213709      -20.5871994476        7.8866951574  W2        593             0.0000000000
      1779       593  TIP3      H2             21.5175013709      -19.7238394476        7.9389351574  W2        593             0.0000000000
      1780       594  TIP3      OH2            22.4418813709      -22.2257994476       -6.9932848426  W2        594             0.0000000000
      1781       594  TIP3      H1             23.2920213709      -21.8047094476       -6.8661248426  W2        594             0.0000000000
      1782       594  TIP3      H2             22.4473913709      -22.9657894476       -6.3861448426  W2        594             0.0000000000
      1783       595  TIP3      OH2            22.8364413709      -24.1720594476       -5.1697148426  W2        595             0.0000000000
      1784       595  TIP3      H1             22.1099013709      -24.6517994476       -4.7719548426  W2        595             0.0000000000
      1785       595  TIP3      H2             23.4177713709      -23.9665894476       -4.4375548426  W2        595             0.0000000000
      1786       596  TIP3      OH2            22.5955613709      -21.3873094476       -0.2219548426  W2        596             0.0000000000
      1787       596  TIP3      H1             23.4289813709      -21.7653094476       -0.5025948426  W2        596             0.0000000000
      1788       596  TIP3      H2             22.7075913709      -20.4441894476       -0.3410448426  W2        596             0.0000000000
      1789       597  TIP3      OH2            21.0817913709      -18.5095594476        2.0848851574  W2        597             0.0000000000
      1790       597  TIP3      H1             20.4343213709      -18.1844094476        2.7104051574  W2        597             0.0000000000
      1791       597  TIP3      H2             20.5641913709      -18.9497894476        1.4107151574  W2        597             0.0000000000
      1792       598  TIP3      OH2            23.1047513709      -24.2712094476       -8.7785848426  W2        598             0.0000000000
      1793       598  TIP3      H1             22.5828613709      -23.9147994476       -9.4974948426  W2        598             0.0000000000
      1794       598  TIP3      H2             23.0716713709      -23.5964294476       -8.1004948426  W2        598             0.0000000000
      1795       599  TIP3      OH2            21.4536513709      -27.0316494476      -10.2278748426  W2        599             0.0000000000
      1796       599  TIP3      H1             21.5500913709      -26.3649494476      -10.9079048426  W2        599             0.0000000000
      1797       599  TIP3      H2             21.3136113709      -27.8470194476      -10.7093248426  W2        599             0.0000000000
      1798       600  TIP3      OH2            20.6231213709      -25.6514094476       -4.6068448426  W2        600             0.0000000000
      1799       600  TIP3      H1             20.4730013709      -26.5965494476       -4.6270648426  W2        600             0.0000000000
      1800       600  TIP3      H2             20.2695713709      -25.3702694476       -3.7629348426  W2        600             0.0000000000
      1801       601  TIP3      OH2             5.6583613709      -23.5731894476       -0.5964648426  W2        601             0.0000000000
      1802       601  TIP3      H1              5.8426513709      -23.6550194476       -1.5321748426  W2        601             0.0000000000
      1803       601  TIP3      H2              6.5076513709      -23.6974894476       -0.1728248426  W2        601             0.0000000000
      1804       602  TIP3      OH2            21.4794113709      -23.6810794476        5.0319851574  W2        602             0.0000000000
      1805       602  TIP3      H1             22.0621413709      -24.4158494476        5.2237051574  W2        602             0.0000000000
      1806       602  TIP3      H2             22.0433413709      -22.9090494476        5.0785651574  W2        602             0.0000000000
      1807       603  TIP3      OH2            22.9761213709      -25.7784994476        5.7165251574  W2        603             0.0000000000
      1808       603  TIP3      H1             22.1127913709      -26.1572894476        5.5509951574  W2        603             0.0000000000
      1809       603  TIP3      H2             23.5804913709      -26.5170194476        5.6421051574  W2        603             0.0000000000
      1810       604  TIP3      OH2            20.7010313709      -29.6236694476      -11.1103248426  W2        604             0.0000000000
      1811       604  TIP3      H1             21.3116113709      -29.9949894476      -10.4735048426  W2        604             0.0000000000
      1812       604  TIP3      H2             19.8641813709      -30.0449794476      -10.9143248426  W2        604             0.0000000000
      1813       605  TIP3      OH2            20.3336013709      -28.0688294476       -6.1443348426  W2        605             0.0000000000
      1814       605  TIP3      H1             20.6133113709      -28.9757894476       -6.0201648426  W2        605             0.0000000000
      1815       605  TIP3      H2             21.0927713709      -27.6346794476       -6.5334148426  W2        605             0.0000000000
      1816       606  TIP3      OH2            20.9454313709      -27.4870894476       -0.7084448426  W2        606             0.0000000000
      1817       606  TIP3      H1             21.8782313709      -27.2750994476       -0.7428448426  W2        606             0.0000000000
      1818       606  TIP3      H2             20.7101813709      -27.3858794476        0.2138551574  W2        606             0.0000000000
      1819       607  TIP3      OH2            20.9746213709      -26.7505594476        2.0674951574  W2        607             0.0000000000
      1820       607  TIP3      H1             20.1317513709      -26.4825194476        2.4334751574  W2        607             0.0000000000
      1821       607  TIP3      H2             21.4170513709      -25.9283694476        1.8566051574  W2        607             0.0000000000
      1822       608  TIP3      OH2             5.2558413709      -28.3026894476        5.5444151574  W2        608             0.0000000000
      1823       608  TIP3      H1              6.1753313709      -28.4248594476        5.7807251574  W2        608             0.0000000000
      1824       608  TIP3      H2              4.8062913709      -29.0527194476        5.9337651574  W2        608             0.0000000000
      1825       609  TIP3      OH2            23.2577813709      -32.7705394476        7.4209951574  W2        609             0.0000000000
      1826       609  TIP3      H1             23.6074813709      -33.4241894476        6.8154651574  W2        609             0.0000000000
      1827       609  TIP3      H2             23.4047313709      -31.9331294476        6.9812551574  W2        609             0.0000000000
      1828       610  TIP3      OH2            20.9470813709      -30.8058994476       -6.0961348426  W2        610             0.0000000000
      1829       610  TIP3      H1             21.1295813709      -31.2547494476       -5.2706348426  W2        610             0.0000000000
      1830       610  TIP3      H2             20.3473713709      -31.3904594476       -6.5596748426  W2        610             0.0000000000
      1831       611  TIP3      OH2             6.4770913709      -29.9905294476       -1.5642948426  W2        611             0.0000000000
      1832       611  TIP3      H1              6.9222513709      -30.7822794476       -1.2623248426  W2        611             0.0000000000
      1833       611  TIP3      H2              6.9433913709      -29.2740094476       -1.1337348426  W2        611             0.0000000000
      1834       612  TIP3      OH2             4.7811213709      -26.9912294476       -0.4952748426  W2        612             0.0000000000
      1835       612  TIP3      H1              5.2731013709      -27.2121794476       -1.2860748426  W2        612             0.0000000000
      1836       612  TIP3      H2              5.1432113709      -26.1508894476       -0.2143248426  W2        612             0.0000000000
      1837       613  TIP3      OH2            22.7775013709      -30.6610794476        5.7701251574  W2        613             0.0000000000
      1838       613  TIP3      H1             21.8600713709      -30.3903694476        5.7344751574  W2        613             0.0000000000
      1839       613  TIP3      H2             22.9004413709      -31.1962394476        4.9860951574  W2        613             0.0000000000
      1840       614  TIP3      OH2            22.8137013709      -30.7380894476       -9.5681048426  W2        614             0.0000000000
      1841       614  TIP3      H1             23.2259613709      -31.4595194476      -10.0433048426  W2        614             0.0000000000
      1842       614  TIP3      H2             23.4953513709      -30.0686294476       -9.5096748426  W2        614             0.0000000000
      1843       615  TIP3      OH2             5.0947713709      -30.7333194476       -6.4410348426  W2        615             0.0000000000
      1844       615  TIP3      H1              4.1696113709      -30.5246594476       -6.5704848426  W2        615             0.0000000000
      1845       615  TIP3      H2              5.5487613709      -30.2492394476       -7.1308048426  W2        615             0.0000000000
      1846       616  TIP3      OH2            19.8654913709      -15.7491494476       -4.4952948426  W2        616             0.0000000000
      1847       616  TIP3      H1             20.5177813709      -16.0969394476       -5.1033848426  W2        616             0.0000000000
      1848       616  TIP3      H2             20.3758713709      -15.2608294476       -3.8493248426  W2        616             0.0000000000
      1849       617  TIP3      OH2             5.0583113709      -31.9954194476        1.9032151574  W2        617             0.0000000000
      1850       617  TIP3      H1              4.3933613709      -32.2413894476        2.5463051574  W2        617             0.0000000000
      1851       617  TIP3      H2              4.6154413709      -31.3733794476        1.3260151574  W2        617             0.0000000000
      1852       618  TIP3      OH2             7.2502413709      -18.8200094476        6.0477951574  W2        618             0.0000000000
      1853       618  TIP3      H1              6.4294913709      -18.6453594476        5.5872651574  W2        618             0.0000000000
      1854       618  TIP3      H2              6.9980213709      -18.8935394476        6.9682351574  W2        618             0.0000000000
      1855       619  TIP3      OH2            10.2045313709      -17.8458894476        2.3061951574  W2        619             0.0000000000
      1856       619  TIP3      H1              9.7796413709      -17.0360394476        2.0236551574  W2        619             0.0000000000
      1857       619  TIP3      H2             11.1088113709      -17.7604794476        2.0041751574  W2        619             0.0000000000
      1858       620  TIP3      OH2            14.5156713709      -16.4468894476        5.2655651574  W2        620             0.0000000000
      1859       620  TIP3      H1             14.7004213709      -16.7802794476        6.1435951574  W2        620             0.0000000000
      1860       620  TIP3      H2             15.3621213709      -16.1370294476        4.9434851574  W2        620             0.0000000000
      1861       621  TIP3      OH2            16.8607113709      -15.1609994476        4.5097051574  W2        621             0.0000000000
      1862       621  TIP3      H1             17.5376013709      -15.7937694476        4.2696251574  W2        621             0.0000000000
      1863       621  TIP3      H2             17.1825913709      -14.7599494476        5.3170351574  W2        621             0.0000000000
      1864       622  TIP3      OH2            21.7780913709      -32.5714494476        3.5892051574  W2        622             0.0000000000
      1865       622  TIP3      H1             20.9654413709      -32.2464194476        3.2016751574  W2        622             0.0000000000
      1866       622  TIP3      H2             22.0109413709      -33.3315994476        3.0561151574  W2        622             0.0000000000
      1867       623  TIP3      OH2             7.6062013709      -14.5894994476        2.3537251574  W2        623             0.0000000000
      1868       623  TIP3      H1              6.8858413709      -14.1493994476        1.9024951574  W2        623             0.0000000000
      1869       623  TIP3      H2              7.2406013709      -14.8400294476        3.2021251574  W2        623             0.0000000000
      1870       624  TIP3      OH2            10.0734613709      -14.9891094476        1.3834451574  W2        624             0.0000000000
      1871       624  TIP3      H1              9.2086813709      -14.9172594476        1.7874551574  W2        624             0.0000000000
      1872       624  TIP3      H2             10.0183613709      -14.4423794476        0.5996951574  W2        624             0.0000000000
      1873       625  TIP3      OH2            14.7840213709      -15.1012194476        0.5590451574  W2        625             0.0000000000
      1874       625  TIP3      H1             14.3274213709      -14.5722494476       -0.0951148426  W2        625             0.0000000000
      1875       625  TIP3      H2             14.9468213709      -14.4980794476        1.2842751574  W2        625             0.0000000000
      1876       626  TIP3      OH2            17.1116513709      -16.2232594476        1.5040751574  W2        626             0.0000000000
      1877       626  TIP3      H1             16.2070213709      -16.0582394476        1.2382851574  W2        626             0.0000000000
      1878       626  TIP3      H2             17.5405113709      -15.3700394476        1.4384151574  W2        626             0.0000000000
      1879       627  TIP3      OH2            19.7158413709      -14.6533494476        1.7988551574  W2        627             0.0000000000
      1880       627  TIP3      H1             19.5340413709      -13.7374594476        1.5883451574  W2        627             0.0000000000
      1881       627  TIP3      H2             19.8926213709      -15.0636394476        0.9523151574  W2        627             0.0000000000
      1882       628  TIP3      OH2             7.0210113709      -15.9662494476       -0.7360948426  W2        628             0.0000000000
      1883       628  TIP3      H1              7.0026113709      -16.3917394476        0.1211351574  W2        628             0.0000000000
      1884       628  TIP3      H2              7.8258013709      -16.2847494476       -1.1448748426  W2        628             0.0000000000
      1885       629  TIP3      OH2             9.1623213709      -17.2563794476       -2.0811048426  W2        629             0.0000000000
      1886       629  TIP3      H1              8.9433913709      -18.1726394476       -1.9115048426  W2        629             0.0000000000
      1887       629  TIP3      H2              9.9865413709      -17.1163394476       -1.6149648426  W2        629             0.0000000000
      1888       630  TIP3      OH2            11.6995713709      -16.7864494476       -1.2323048426  W2        630             0.0000000000
      1889       630  TIP3      H1             11.9121413709      -17.6745494476       -1.5192148426  W2        630             0.0000000000
      1890       630  TIP3      H2             11.7640813709      -16.8206794476       -0.2779048426  W2        630             0.0000000000
      1891       631  TIP3      OH2            15.2079413709      -31.1223894476       -2.0879748426  W2        631             0.0000000000
      1892       631  TIP3      H1             14.5336213709      -31.7518294476       -1.8323948426  W2        631             0.0000000000
      1893       631  TIP3      H2             15.7718613709      -31.6064994476       -2.6911848426  W2        631             0.0000000000
      1894       632  TIP3      OH2            20.3506613709      -33.0149894476       -1.9752648426  W2        632             0.0000000000
      1895       632  TIP3      H1             20.9544213709      -32.4674494476       -2.4771648426  W2        632             0.0000000000
      1896       632  TIP3      H2             19.4808613709      -32.6959494476       -2.2158548426  W2        632             0.0000000000
      1897       633  TIP3      OH2            22.0777013709      -31.8761194476       -3.6421748426  W2        633             0.0000000000
      1898       633  TIP3      H1             22.6894513709      -32.3905494476       -4.1688148426  W2        633             0.0000000000
      1899       633  TIP3      H2             22.4600413709      -30.9989094476       -3.6187348426  W2        633             0.0000000000
      1900       634  TIP3      OH2             7.5346913709      -32.4883594476       -4.2659848426  W2        634             0.0000000000
      1901       634  TIP3      H1              6.7576713709      -32.7228694476       -4.7733948426  W2        634             0.0000000000
      1902       634  TIP3      H2              8.0650513709      -33.2851494476       -4.2571848426  W2        634             0.0000000000
      1903       635  TIP3      OH2             6.3710313709      -32.6905494476       -8.4623748426  W2        635             0.0000000000
      1904       635  TIP3      H1              6.8101013709      -32.0794994476       -9.0540248426  W2        635             0.0000000000
      1905       635  TIP3      H2              5.7372713709      -32.1521394476       -7.9883748426  W2        635             0.0000000000
      1906       636  TIP3      OH2            12.1139513709      -32.5616494476       -4.4526748426  W2        636             0.0000000000
      1907       636  TIP3      H1             12.9882913709      -32.1732194476       -4.4822448426  W2        636             0.0000000000
      1908       636  TIP3      H2             11.9780313709      -32.7768694476       -3.5299548426  W2        636             0.0000000000
      1909       637  TIP3      OH2            17.6707913709      -32.5316694476       -2.8035048426  W2        637             0.0000000000
      1910       637  TIP3      H1             17.7469513709      -32.4365094476       -3.7529048426  W2        637             0.0000000000
      1911       637  TIP3      H2             17.3957113709      -33.4393794476       -2.6745948426  W2        637             0.0000000000
      1912       638  TIP3      OH2            19.0240513709      -32.5058894476       -7.1110048426  W2        638             0.0000000000
      1913       638  TIP3      H1             18.3211613709      -31.8909694476       -7.3208648426  W2        638             0.0000000000
      1914       638  TIP3      H2             18.5791913709      -33.3432194476       -6.9799148426  W2        638             0.0000000000
      1915       639  TIP3      OH2             6.2719813709      -16.7423294476       -7.5648648426  W2        639             0.0000000000
      1916       639  TIP3      H1              5.5869713709      -16.7804394476       -8.2323548426  W2        639             0.0000000000
      1917       639  TIP3      H2              6.2757013709      -15.8295694476       -7.2766548426  W2        639             0.0000000000
      1918       640  TIP3      OH2             8.2319413709      -30.7743994476      -10.0199648426  W2        640             0.0000000000
      1919       640  TIP3      H1              8.7232813709      -31.4041594476      -10.5474148426  W2        640             0.0000000000
      1920       640  TIP3      H2              8.8555713709      -30.4784594476       -9.3568448426  W2        640             0.0000000000
      1921       641  TIP3      OH2            13.2579513709      -30.4812494476       -7.5629148426  W2        641             0.0000000000
      1922       641  TIP3      H1             13.4360813709      -31.1279294476       -6.8800548426  W2        641             0.0000000000
      1923       641  TIP3      H2             13.2045713709      -29.6474794476       -7.0958048426  W2        641             0.0000000000
      1924       642  TIP3      OH2            15.1363313709      -15.5328394476       -9.1672448426  W2        642             0.0000000000
      1925       642  TIP3      H1             16.0023513709      -15.1660994476       -9.3454248426  W2        642             0.0000000000
      1926       642  TIP3      H2             14.8896113709      -15.9720394476       -9.9811648426  W2        642             0.0000000000
      1927       643  TIP3      OH2            21.8452913709      -15.9698094476       -6.4881348426  W2        643             0.0000000000
      1928       643  TIP3      H1             21.6510013709      -16.7175994476       -7.0531748426  W2        643             0.0000000000
      1929       643  TIP3      H2             21.8063013709      -15.2117994476       -7.0713448426  W2        643             0.0000000000
      1930       644  TIP3      OH2             7.4924913709      -31.9741694476        5.2516351574  W2        644             0.0000000000
      1931       644  TIP3      H1              7.1263113709      -32.7399094476        5.6941051574  W2        644             0.0000000000
      1932       644  TIP3      H2              8.4053413709      -31.9451494476        5.5381451574  W2        644             0.0000000000
      1933       645  TIP3      OH2             9.4655713709      -32.6237294476        6.7873451574  W2        645             0.0000000000
      1934       645  TIP3      H1             10.3639313709      -32.8977094476        6.6026851574  W2        645             0.0000000000
      1935       645  TIP3      H2              9.0788813709      -33.3661294476        7.2516051574  W2        645             0.0000000000
      1936       646  TIP3      OH2             8.0901013709      -15.8222494476      -10.5396548426  W2        646             0.0000000000
      1937       646  TIP3      H1              7.8225613709      -15.5359594476       -9.6663448426  W2        646             0.0000000000
      1938       646  TIP3      H2              8.8613613709      -16.3683294476      -10.3874048426  W2        646             0.0000000000
      1939       647  TIP3      OH2            17.8868013709      -33.2911994476        6.9696251574  W2        647             0.0000000000
      1940       647  TIP3      H1             17.9635213709      -33.7171294476        7.8233951574  W2        647             0.0000000000
      1941       647  TIP3      H2             18.7804613709      -33.2777294476        6.6269751574  W2        647             0.0000000000
      1942       648  TIP3      OH2            21.0629113709      -17.2185694476        5.6620451574  W2        648             0.0000000000
      1943       648  TIP3      H1             20.2811013709      -17.4047694476        5.1421051574  W2        648             0.0000000000
      1944       648  TIP3      H2             20.9909013709      -16.2891394476        5.8792951574  W2        648             0.0000000000
      1945       649  TIP3      OH2            26.7705813709      -24.4628494476        0.7045751574  W2        649             0.0000000000
      1946       649  TIP3      H1             26.8117913709      -25.0885194476        1.4278151574  W2        649             0.0000000000
      1947       649  TIP3      H2             27.4733513709      -23.8389894476        0.8866151574  W2        649             0.0000000000
      1948       650  TIP3      OH2            27.6938913709      -20.0129594476       -0.7605148426  W2        650             0.0000000000
      1949       650  TIP3      H1             27.3244113709      -20.8149094476       -1.1300848426  W2        650             0.0000000000
      1950       650  TIP3      H2             28.6350013709      -20.1814694476       -0.7141748426  W2        650             0.0000000000
      1951       651  TIP3      OH2            24.3039413709      -26.3526994476       -5.3676348426  W2        651             0.0000000000
      1952       651  TIP3      H1             23.8562813709      -25.5068294476       -5.3859848426  W2        651             0.0000000000
      1953       651  TIP3      H2             23.7430613709      -26.9322794476       -5.8831248426  W2        651             0.0000000000
      1954       652  TIP3      OH2            25.0145513709      -24.1907394476       -3.2418348426  W2        652             0.0000000000
      1955       652  TIP3      H1             25.2279013709      -24.9605794476       -2.7145348426  W2        652             0.0000000000
      1956       652  TIP3      H2             25.7523113709      -24.1010694476       -3.8450748426  W2        652             0.0000000000
      1957       653  TIP3      OH2            32.7915213709      -21.6449194476       -0.4823148426  W2        653             0.0000000000
      1958       653  TIP3      H1             33.0953113709      -22.3307794476       -1.0769048426  W2        653             0.0000000000
      1959       653  TIP3      H2             33.5129213709      -21.5260494476        0.1354851574  W2        653             0.0000000000
      1960       654  TIP3      OH2            29.0870513709      -29.1490394476       -2.8823548426  W2        654             0.0000000000
      1961       654  TIP3      H1             29.1301613709      -28.2891894476       -3.3007248426  W2        654             0.0000000000
      1962       654  TIP3      H2             28.6294613709      -29.7015694476       -3.5160348426  W2        654             0.0000000000
      1963       655  TIP3      OH2            25.7072013709      -26.7524594476       -2.1202148426  W2        655             0.0000000000
      1964       655  TIP3      H1             26.3608613709      -27.3022894476       -1.6882048426  W2        655             0.0000000000
      1965       655  TIP3      H2             25.7311313709      -27.0265594476       -3.0370148426  W2        655             0.0000000000
      1966       656  TIP3      OH2            30.8636513709      -25.2023294476       -2.9050648426  W2        656             0.0000000000
      1967       656  TIP3      H1             31.4797513709      -25.7287894476       -2.3956648426  W2        656             0.0000000000
      1968       656  TIP3      H2             30.2775313709      -25.8424594476       -3.3087048426  W2        656             0.0000000000
      1969       657  TIP3      OH2            27.8972413709      -30.2311994476        1.1917251574  W2        657             0.0000000000
      1970       657  TIP3      H1             27.6784113709      -29.7011394476        0.4253251574  W2        657             0.0000000000
      1971       657  TIP3      H2             27.2293313709      -30.0046494476        1.8388651574  W2        657             0.0000000000
      1972       658  TIP3      OH2            30.4663813709      -22.5556294476        1.4790951574  W2        658             0.0000000000
      1973       658  TIP3      H1             29.7262913709      -21.9574794476        1.5826151574  W2        658             0.0000000000
      1974       658  TIP3      H2             31.1803313709      -22.0016694476        1.1634551574  W2        658             0.0000000000
      1975       659  TIP3      OH2            27.4909713709      -28.3390194476       -0.8560548426  W2        659             0.0000000000
      1976       659  TIP3      H1             28.1046013709      -27.7062594476       -0.4828148426  W2        659             0.0000000000
      1977       659  TIP3      H2             28.0030413709      -28.8115194476       -1.5123648426  W2        659             0.0000000000
      1978       660  TIP3      OH2            28.8738113709      -20.5913294476        2.2662451574  W2        660             0.0000000000
      1979       660  TIP3      H1             28.8685713709      -19.7119794476        1.8881751574  W2        660             0.0000000000
      1980       660  TIP3      H2             28.0202213709      -20.6749194476        2.6912351574  W2        660             0.0000000000
      1981       661  TIP3      OH2            24.9949013709      -20.9205394476       -6.9518248426  W2        661             0.0000000000
      1982       661  TIP3      H1             24.7229913709      -20.6914394476       -7.8405348426  W2        661             0.0000000000
      1983       661  TIP3      H2             25.0404713709      -20.0826594476       -6.4912948426  W2        661             0.0000000000
      1984       662  TIP3      OH2            31.9237113709      -32.9256894476       -1.3557848426  W2        662             0.0000000000
      1985       662  TIP3      H1             31.8061313709      -33.8740894476       -1.4099548426  W2        662             0.0000000000
      1986       662  TIP3      H2             31.0687213709      -32.5930794476       -1.0826748426  W2        662             0.0000000000
      1987       663  TIP3      OH2            29.2413413709      -23.2481794476       -4.0211148426  W2        663             0.0000000000
      1988       663  TIP3      H1             28.9108613709      -23.6188394476       -4.8394148426  W2        663             0.0000000000
      1989       663  TIP3      H2             29.8297513709      -23.9187794476       -3.6742848426  W2        663             0.0000000000
      1990       664  TIP3      OH2            30.6080913709      -19.8201194476       -1.3398948426  W2        664             0.0000000000
      1991       664  TIP3      H1             30.5132213709      -20.3988094476       -2.0964348426  W2        664             0.0000000000
      1992       664  TIP3      H2             31.3374513709      -20.1915494476       -0.8436148426  W2        664             0.0000000000
      1993       665  TIP3      OH2            29.6078913709      -24.4796194476       -0.3876148426  W2        665             0.0000000000
      1994       665  TIP3      H1             30.1731413709      -24.3581994476       -1.1504948426  W2        665             0.0000000000
      1995       665  TIP3      H2             29.9267813709      -23.8421194476        0.2512351574  W2        665             0.0000000000
      1996       666  TIP3      OH2            30.4879613709      -20.0803494476        4.3295751574  W2        666             0.0000000000
      1997       666  TIP3      H1             30.1767113709      -19.2980294476        4.7848951574  W2        666             0.0000000000
      1998       666  TIP3      H2             29.8379813709      -20.2334394476        3.6437751574  W2        666             0.0000000000
      1999       667  TIP3      OH2            27.4079513709      -23.8822394476        3.5581451574  W2        667             0.0000000000
      2000       667  TIP3      H1             27.4782713709      -23.2315594476        4.2566451574  W2        667             0.0000000000
      2001       667  TIP3      H2             26.5171713709      -23.7794894476        3.2232351574  W2        667             0.0000000000
      2002       668  TIP3      OH2            28.7275513709      -18.0088494476        5.0929551574  W2        668             0.0000000000
      2003       668  TIP3      H1             28.7350813709      -18.1448794476        4.1455051574  W2        668             0.0000000000
      2004       668  TIP3      H2             27.8115913709      -18.1260394476        5.3449551574  W2        668             0.0000000000
      2005       669  TIP3      OH2            28.2316113709      -24.1787494476       -6.4318348426  W2        669             0.0000000000
      2006       669  TIP3      H1             27.9397413709      -23.4105794476       -6.9227048426  W2        669             0.0000000000
      2007       669  TIP3      H2             27.5571313709      -24.8381294476       -6.5946948426  W2        669             0.0000000000
      2008       670  TIP3      OH2            24.3246213709      -21.8158294476        2.3831451574  W2        670             0.0000000000
      2009       670  TIP3      H1             23.8234613709      -21.8438894476        1.5681151574  W2        670             0.0000000000
      2010       670  TIP3      H2             24.3299913709      -22.7215094476        2.6928751574  W2        670             0.0000000000
      2011       671  TIP3      OH2            24.0748913709      -19.0354494476       -0.7328348426  W2        671             0.0000000000
      2012       671  TIP3      H1             25.0209513709      -19.1797494476       -0.7518848426  W2        671             0.0000000000
      2013       671  TIP3      H2             23.9625213709      -18.2511694476       -0.1957148426  W2        671             0.0000000000
      2014       672  TIP3      OH2            27.3191013709      -16.2344894476       -4.5873648426  W2        672             0.0000000000
      2015       672  TIP3      H1             27.4711413709      -16.5824494476       -3.7087148426  W2        672             0.0000000000
      2016       672  TIP3      H2             26.4681413709      -16.5907594476       -4.8426448426  W2        672             0.0000000000
      2017       673  TIP3      OH2            26.5736713709      -20.4922894476        3.4264251574  W2        673             0.0000000000
      2018       673  TIP3      H1             26.7898013709      -20.8537294476        4.2860051574  W2        673             0.0000000000
      2019       673  TIP3      H2             25.7181413709      -20.8669094476        3.2167751574  W2        673             0.0000000000
      2020       674  TIP3      OH2            29.1924713709      -32.0222394476       -0.5781548426  W2        674             0.0000000000
      2021       674  TIP3      H1             28.3308413709      -32.1094194476       -0.9858648426  W2        674             0.0000000000
      2022       674  TIP3      H2             29.1700413709      -31.1662294476       -0.1503948426  W2        674             0.0000000000
      2023       675  TIP3      OH2            29.2834813709      -27.0567894476        0.5168651574  W2        675             0.0000000000
      2024       675  TIP3      H1             28.6416913709      -27.0970594476        1.2258751574  W2        675             0.0000000000
      2025       675  TIP3      H2             29.3206813709      -26.1303194476        0.2791651574  W2        675             0.0000000000
      2026       676  TIP3      OH2            29.2803913709      -26.8357794476       -4.5711348426  W2        676             0.0000000000
      2027       676  TIP3      H1             28.3876813709      -27.1761694476       -4.6297548426  W2        676             0.0000000000
      2028       676  TIP3      H2             29.7310513709      -27.2126894476       -5.3268148426  W2        676             0.0000000000
      2029       677  TIP3      OH2            27.0335313709      -26.7364394476        2.3840651574  W2        677             0.0000000000
      2030       677  TIP3      H1             26.9954713709      -26.3362794476        3.2527751574  W2        677             0.0000000000
      2031       677  TIP3      H2             26.5426413709      -27.5531994476        2.4743551574  W2        677             0.0000000000
      2032       678  TIP3      OH2            30.3992713709      -29.3622094476      -10.8173348426  W2        678             0.0000000000
      2033       678  TIP3      H1             29.9683413709      -29.8071994476      -10.0875948426  W2        678             0.0000000000
      2034       678  TIP3      H2             29.6811413709      -28.9905794476      -11.3295848426  W2        678             0.0000000000
      2035       679  TIP3      OH2            23.6416113709      -29.6202594476       -3.7654648426  W2        679             0.0000000000
      2036       679  TIP3      H1             24.2723813709      -29.6490494476       -3.0460748426  W2        679             0.0000000000
      2037       679  TIP3      H2             24.0910413709      -30.0453894476       -4.4958748426  W2        679             0.0000000000
      2038       680  TIP3      OH2            24.9158213709      -28.8740594476       -8.3414248426  W2        680             0.0000000000
      2039       680  TIP3      H1             25.3899913709      -28.2830694476       -8.9263348426  W2        680             0.0000000000
      2040       680  TIP3      H2             24.1984613709      -28.3437694476       -7.9944148426  W2        680             0.0000000000
      2041       681  TIP3      OH2            31.8619213709      -29.4080294476       -3.4847248426  W2        681             0.0000000000
      2042       681  TIP3      H1             30.9510313709      -29.3513494476       -3.1961248426  W2        681             0.0000000000
      2043       681  TIP3      H2             32.3672113709      -29.4684794476       -2.6740048426  W2        681             0.0000000000
      2044       682  TIP3      OH2            26.6902613709      -27.7793994476       -4.6579648426  W2        682             0.0000000000
      2045       682  TIP3      H1             25.8010613709      -27.6798494476       -4.9980048426  W2        682             0.0000000000
      2046       682  TIP3      H2             26.9867513709      -28.6210994476       -5.0041748426  W2        682             0.0000000000
      2047       683  TIP3      OH2            30.3434413709      -27.7791394476       -7.0015048426  W2        683             0.0000000000
      2048       683  TIP3      H1             31.2749913709      -27.6501394476       -6.8231948426  W2        683             0.0000000000
      2049       683  TIP3      H2             30.1284713709      -27.1097094476       -7.6510348426  W2        683             0.0000000000
      2050       684  TIP3      OH2            29.0174613709      -26.5849194476       -9.4348948426  W2        684             0.0000000000
      2051       684  TIP3      H1             28.4749713709      -26.9645394476      -10.1261348426  W2        684             0.0000000000
      2052       684  TIP3      H2             29.8509513709      -26.3904494476       -9.8634848426  W2        684             0.0000000000
      2053       685  TIP3      OH2            27.1526013709      -22.0277294476        5.6642651574  W2        685             0.0000000000
      2054       685  TIP3      H1             27.8848413709      -21.7731394476        6.2257151574  W2        685             0.0000000000
      2055       685  TIP3      H2             26.3724713709      -21.8231894476        6.1798051574  W2        685             0.0000000000
      2056       686  TIP3      OH2            33.1818913709      -26.6207294476       -1.5977648426  W2        686             0.0000000000
      2057       686  TIP3      H1             33.7462313709      -27.1670694476       -2.1448048426  W2        686             0.0000000000
      2058       686  TIP3      H2             33.0342313709      -27.1425394476       -0.8090048426  W2        686             0.0000000000
      2059       687  TIP3      OH2            28.1838613709      -30.4841194476       -5.1792848426  W2        687             0.0000000000
      2060       687  TIP3      H1             27.8668113709      -31.3865894476       -5.2147448426  W2        687             0.0000000000
      2061       687  TIP3      H2             28.9652713709      -30.4823794476       -5.7321248426  W2        687             0.0000000000
      2062       688  TIP3      OH2            31.8084813709      -28.2321194476        0.8162751574  W2        688             0.0000000000
      2063       688  TIP3      H1             30.9730113709      -27.7781694476        0.9265151574  W2        688             0.0000000000
      2064       688  TIP3      H2             32.3325413709      -27.9562694476        1.5682651574  W2        688             0.0000000000
      2065       689  TIP3      OH2            32.3527413709      -22.0193494476       -7.4990848426  W2        689             0.0000000000
      2066       689  TIP3      H1             31.6078413709      -22.5268194476       -7.8212948426  W2        689             0.0000000000
      2067       689  TIP3      H2             32.2184613709      -21.9705494476       -6.5526048426  W2        689             0.0000000000
      2068       690  TIP3      OH2            27.4775713709      -22.7243494476       -1.7292948426  W2        690             0.0000000000
      2069       690  TIP3      H1             28.2222913709      -22.7267794476       -2.3306448426  W2        690             0.0000000000
      2070       690  TIP3      H2             27.5552313709      -23.5479694476       -1.2477848426  W2        690             0.0000000000
      2071       691  TIP3      OH2            24.4855413709      -24.2636594476        3.5855551574  W2        691             0.0000000000
      2072       691  TIP3      H1             24.7084013709      -24.6816994476        4.4173051574  W2        691             0.0000000000
      2073       691  TIP3      H2             23.8835513709      -24.8761594476        3.1628351574  W2        691             0.0000000000
      2074       692  TIP3      OH2            31.5020313709      -24.7466694476        5.7985251574  W2        692             0.0000000000
      2075       692  TIP3      H1             31.2061113709      -24.9123694476        4.9034351574  W2        692             0.0000000000
      2076       692  TIP3      H2             32.4335513709      -24.9666394476        5.7879151574  W2        692             0.0000000000
      2077       693  TIP3      OH2            29.8525113709      -19.2065294476       -4.3251448426  W2        693             0.0000000000
      2078       693  TIP3      H1             30.3797313709      -18.4330894476       -4.5252648426  W2        693             0.0000000000
      2079       693  TIP3      H2             28.9723613709      -18.9816094476       -4.6267448426  W2        693             0.0000000000
      2080       694  TIP3      OH2            25.6072813709      -24.3441194476       -9.7379048426  W2        694             0.0000000000
      2081       694  TIP3      H1             26.2232713709      -23.7173994476       -9.3584248426  W2        694             0.0000000000
      2082       694  TIP3      H2             24.7455413709      -24.0281394476       -9.4662548426  W2        694             0.0000000000
      2083       695  TIP3      OH2            31.2797413709      -21.5435394476       -4.7487148426  W2        695             0.0000000000
      2084       695  TIP3      H1             31.0387413709      -20.6180994476       -4.7071848426  W2        695             0.0000000000
      2085       695  TIP3      H2             30.5391013709      -22.0024094476       -4.3523248426  W2        695             0.0000000000
      2086       696  TIP3      OH2            31.7944013709      -17.3941794476        1.5663951574  W2        696             0.0000000000
      2087       696  TIP3      H1             32.1568713709      -16.5396194476        1.3328351574  W2        696             0.0000000000
      2088       696  TIP3      H2             32.3259213709      -17.6860194476        2.3070251574  W2        696             0.0000000000
      2089       697  TIP3      OH2            29.9628213709      -16.5217794476       -5.2034948426  W2        697             0.0000000000
      2090       697  TIP3      H1             29.0128713709      -16.4160394476       -5.1521648426  W2        697             0.0000000000
      2091       697  TIP3      H2             30.3146313709      -15.7010394476       -4.8587448426  W2        697             0.0000000000
      2092       698  TIP3      OH2            26.1194913709      -29.5103894476        3.1436951574  W2        698             0.0000000000
      2093       698  TIP3      H1             25.2267213709      -29.1718494476        3.0760951574  W2        698             0.0000000000
      2094       698  TIP3      H2             26.0207713709      -30.3657794476        3.5617751574  W2        698             0.0000000000
      2095       699  TIP3      OH2            25.7706913709      -17.7059494476        1.5786351574  W2        699             0.0000000000
      2096       699  TIP3      H1             25.9877213709      -18.6377094476        1.5476051574  W2        699             0.0000000000
      2097       699  TIP3      H2             26.0170413709      -17.4314494476        2.4619151574  W2        699             0.0000000000
      2098       700  TIP3      OH2            31.6321513709      -19.2544494476      -11.2121448426  W2        700             0.0000000000
      2099       700  TIP3      H1             31.8711313709      -20.0026394476      -11.7592548426  W2        700             0.0000000000
      2100       700  TIP3      H2             31.3632813709      -19.6422794476      -10.3793648426  W2        700             0.0000000000
      2101       701  TIP3      OH2            30.5692113709      -19.6840694476       -8.7558848426  W2        701             0.0000000000
      2102       701  TIP3      H1             30.7160113709      -20.2040894476       -7.9657948426  W2        701             0.0000000000
      2103       701  TIP3      H2             30.5663813709      -18.7773094476       -8.4492948426  W2        701             0.0000000000
      2104       702  TIP3      OH2            27.0223213709      -22.4317394476       -8.2453448426  W2        702             0.0000000000
      2105       702  TIP3      H1             26.3362513709      -22.0794894476       -7.6783748426  W2        702             0.0000000000
      2106       702  TIP3      H2             27.5451113709      -21.6687794476       -8.4919148426  W2        702             0.0000000000
      2107       703  TIP3      OH2            32.8383113709      -28.3893094476       -6.0343748426  W2        703             0.0000000000
      2108       703  TIP3      H1             33.6505713709      -27.8849894476       -5.9882048426  W2        703             0.0000000000
      2109       703  TIP3      H2             32.5936113709      -28.5343394476       -5.1204148426  W2        703             0.0000000000
      2110       704  TIP3      OH2            30.6452413709      -16.9429894476       -8.0247748426  W2        704             0.0000000000
      2111       704  TIP3      H1             30.8061113709      -16.1432394476       -8.5255148426  W2        704             0.0000000000
      2112       704  TIP3      H2             30.4480213709      -16.6363894476       -7.1397148426  W2        704             0.0000000000
      2113       705  TIP3      OH2            29.3796813709      -30.2450694476       -8.4090148426  W2        705             0.0000000000
      2114       705  TIP3      H1             29.2961613709      -29.3567594476       -8.0623748426  W2        705             0.0000000000
      2115       705  TIP3      H2             30.2697113709      -30.5103994476       -8.1773348426  W2        705             0.0000000000
      2116       706  TIP3      OH2            27.6382113709      -19.8178494476       -9.3485648426  W2        706             0.0000000000
      2117       706  TIP3      H1             28.2303613709      -19.1183694476       -9.0723248426  W2        706             0.0000000000
      2118       706  TIP3      H2             28.0975113709      -20.2508994476      -10.0681048426  W2        706             0.0000000000
      2119       707  TIP3      OH2            25.9541313709      -27.1535494476      -10.2326248426  W2        707             0.0000000000
      2120       707  TIP3      H1             25.9093913709      -26.2142394476      -10.0539248426  W2        707             0.0000000000
      2121       707  TIP3      H2             25.0664513709      -27.3890594476      -10.5024148426  W2        707             0.0000000000
      2122       708  TIP3      OH2            26.7623313709      -32.3718894476       -1.5595248426  W2        708             0.0000000000
      2123       708  TIP3      H1             26.5333113709      -32.3126394476       -2.4870248426  W2        708             0.0000000000
      2124       708  TIP3      H2             26.3196713709      -33.1633394476       -1.2531148426  W2        708             0.0000000000
      2125       709  TIP3      OH2            25.6926613709      -18.4311794476       -5.3989448426  W2        709             0.0000000000
      2126       709  TIP3      H1             24.8605213709      -17.9589094476       -5.3718048426  W2        709             0.0000000000
      2127       709  TIP3      H2             26.2384913709      -17.9214194476       -5.9976348426  W2        709             0.0000000000
      2128       710  TIP3      OH2            24.9810313709      -15.8188094476        5.9308551574  W2        710             0.0000000000
      2129       710  TIP3      H1             25.5212513709      -16.0354094476        6.6907751574  W2        710             0.0000000000
      2130       710  TIP3      H2             24.4998313709      -16.6242094476        5.7411051574  W2        710             0.0000000000
      2131       711  TIP3      OH2            29.5783713709      -16.8993694476        7.5512751574  W2        711             0.0000000000
      2132       711  TIP3      H1             30.3460913709      -17.3582894476        7.8921951574  W2        711             0.0000000000
      2133       711  TIP3      H2             29.5569913709      -17.1253894476        6.6213951574  W2        711             0.0000000000
      2134       712  TIP3      OH2            24.8879813709      -22.0083994476        6.8852851574  W2        712             0.0000000000
      2135       712  TIP3      H1             25.0320313709      -22.9103294476        6.5989551574  W2        712             0.0000000000
      2136       712  TIP3      H2             24.1157213709      -21.7221894476        6.3975151574  W2        712             0.0000000000
      2137       713  TIP3      OH2            29.2293513709      -21.6648294476      -10.9822548426  W2        713             0.0000000000
      2138       713  TIP3      H1             29.2937613709      -22.4588694476      -10.4516148426  W2        713             0.0000000000
      2139       713  TIP3      H2             29.8822713709      -21.7835494476      -11.6720548426  W2        713             0.0000000000
      2140       714  TIP3      OH2            31.5435913709      -22.0385894476        6.3179251574  W2        714             0.0000000000
      2141       714  TIP3      H1             31.2149713709      -21.7677794476        5.4606651574  W2        714             0.0000000000
      2142       714  TIP3      H2             31.6954113709      -22.9796094476        6.2304251574  W2        714             0.0000000000
      2143       715  TIP3      OH2            25.7206313709      -24.8080694476        6.3052151574  W2        715             0.0000000000
      2144       715  TIP3      H1             26.1287513709      -25.6654094476        6.1842751574  W2        715             0.0000000000
      2145       715  TIP3      H2             25.4603913709      -24.7939394476        7.2262451574  W2        715             0.0000000000
      2146       716  TIP3      OH2            30.3787313709      -23.6922094476       -8.6764548426  W2        716             0.0000000000
      2147       716  TIP3      H1             29.9189313709      -24.1763794476       -7.9906048426  W2        716             0.0000000000
      2148       716  TIP3      H2             30.6336013709      -24.3606694476       -9.3124048426  W2        716             0.0000000000
      2149       717  TIP3      OH2            29.6676613709      -25.7994994476        3.6795051574  W2        717             0.0000000000
      2150       717  TIP3      H1             29.0492713709      -25.1248394476        3.9599751574  W2        717             0.0000000000
      2151       717  TIP3      H2             30.0117813709      -25.4781094476        2.8461251574  W2        717             0.0000000000
      2152       718  TIP3      OH2            31.4497713709      -25.4490294476      -10.4141348426  W2        718             0.0000000000
      2153       718  TIP3      H1             31.2692713709      -25.6039094476      -11.3413048426  W2        718             0.0000000000
      2154       718  TIP3      H2             32.3998213709      -25.3411594476      -10.3693448426  W2        718             0.0000000000
      2155       719  TIP3      OH2            30.0070313709      -28.4444194476        4.7618151574  W2        719             0.0000000000
      2156       719  TIP3      H1             30.1571213709      -29.1732894476        4.1597851574  W2        719             0.0000000000
      2157       719  TIP3      H2             30.0092713709      -27.6672494476        4.2030351574  W2        719             0.0000000000
      2158       720  TIP3      OH2            30.4196013709      -30.0748394476        2.2545551574  W2        720             0.0000000000
      2159       720  TIP3      H1             30.9553513709      -29.6231694476        1.6024851574  W2        720             0.0000000000
      2160       720  TIP3      H2             29.5675613709      -30.1828594476        1.8319651574  W2        720             0.0000000000
      2161       721  TIP3      OH2            32.0014413709      -24.6352194476        2.4940751574  W2        721             0.0000000000
      2162       721  TIP3      H1             32.7519213709      -24.7914694476        1.9208551574  W2        721             0.0000000000
      2163       721  TIP3      H2             31.6622713709      -23.7835594476        2.2186251574  W2        721             0.0000000000
      2164       722  TIP3      OH2            28.4856613709      -27.2460694476        6.6733751574  W2        722             0.0000000000
      2165       722  TIP3      H1             27.7185613709      -27.7785894476        6.4631351574  W2        722             0.0000000000
      2166       722  TIP3      H2             29.1645613709      -27.5560294476        6.0740051574  W2        722             0.0000000000
      2167       723  TIP3      OH2            31.2251513709      -32.6182694476        2.6859151574  W2        723             0.0000000000
      2168       723  TIP3      H1             31.1271113709      -31.6719494476        2.5805351574  W2        723             0.0000000000
      2169       723  TIP3      H2             30.4827713709      -32.9908894476        2.2102651574  W2        723             0.0000000000
      2170       724  TIP3      OH2            32.4892013709      -28.2967294476        6.2497551574  W2        724             0.0000000000
      2171       724  TIP3      H1             32.2537413709      -28.5160594476        7.1512451574  W2        724             0.0000000000
      2172       724  TIP3      H2             31.7058913709      -28.5036094476        5.7400051574  W2        724             0.0000000000
      2173       725  TIP3      OH2            26.6659413709      -29.3256894476        6.3778451574  W2        725             0.0000000000
      2174       725  TIP3      H1             26.8776813709      -30.0320794476        5.7675951574  W2        725             0.0000000000
      2175       725  TIP3      H2             26.5546913709      -29.7630894476        7.2219651574  W2        725             0.0000000000
      2176       726  TIP3      OH2            31.4469613709      -33.3245294476        5.3571951574  W2        726             0.0000000000
      2177       726  TIP3      H1             32.1588013709      -33.9643094476        5.3431051574  W2        726             0.0000000000
      2178       726  TIP3      H2             31.3460013709      -33.0576994476        4.4435051574  W2        726             0.0000000000
      2179       727  TIP3      OH2            31.8007113709      -31.6416894476        7.4108251574  W2        727             0.0000000000
      2180       727  TIP3      H1             31.6689313709      -32.1173094476        6.5906751574  W2        727             0.0000000000
      2181       727  TIP3      H2             31.2014513709      -30.8973294476        7.3555351574  W2        727             0.0000000000
      2182       728  TIP3      OH2            31.3469413709      -14.7586594476       -9.4127748426  W2        728             0.0000000000
      2183       728  TIP3      H1             32.2800113709      -14.6007894476       -9.2689348426  W2        728             0.0000000000
      2184       728  TIP3      H2             31.0828213709      -14.0833594476      -10.0376248426  W2        728             0.0000000000
      2185       729  TIP3      OH2            24.9154313709      -20.1222794476       -9.9299648426  W2        729             0.0000000000
      2186       729  TIP3      H1             25.8293513709      -20.0433894476       -9.6565748426  W2        729             0.0000000000
      2187       729  TIP3      H2             24.9227413709      -20.8093194476      -10.5964048426  W2        729             0.0000000000
      2188       730  TIP3      OH2            23.5644913709      -14.7294294476       -4.8525748426  W2        730             0.0000000000
      2189       730  TIP3      H1             22.9172013709      -15.1912594476       -5.3854548426  W2        730             0.0000000000
      2190       730  TIP3      H2             23.9189513709      -15.4010994476       -4.2699548426  W2        730             0.0000000000
      2191       731  TIP3      OH2            24.4344113709      -16.6487294476       -3.0479548426  W2        731             0.0000000000
      2192       731  TIP3      H1             24.1000913709      -17.5289994476       -2.8759348426  W2        731             0.0000000000
      2193       731  TIP3      H2             24.6566513709      -16.3032294476       -2.1833948426  W2        731             0.0000000000
      2194       732  TIP3      OH2            24.5143613709      -23.5731894476       -0.5964648426  W2        732             0.0000000000
      2195       732  TIP3      H1             24.6986513709      -23.6550194476       -1.5321748426  W2        732             0.0000000000
      2196       732  TIP3      H2             25.3636513709      -23.6974894476       -0.1728248426  W2        732             0.0000000000
      2197       733  TIP3      OH2            24.1118413709      -28.3026894476        5.5444151574  W2        733             0.0000000000
      2198       733  TIP3      H1             25.0313313709      -28.4248594476        5.7807251574  W2        733             0.0000000000
      2199       733  TIP3      H2             23.6622913709      -29.0527194476        5.9337651574  W2        733             0.0000000000
      2200       734  TIP3      OH2            25.3330913709      -29.9905294476       -1.5642948426  W2        734             0.0000000000
      2201       734  TIP3      H1             25.7782513709      -30.7822794476       -1.2623248426  W2        734             0.0000000000
      2202       734  TIP3      H2             25.7993913709      -29.2740094476       -1.1337348426  W2        734             0.0000000000
      2203       735  TIP3      OH2            23.6371213709      -26.9912294476       -0.4952748426  W2        735             0.0000000000
      2204       735  TIP3      H1             24.1291013709      -27.2121794476       -1.2860748426  W2        735             0.0000000000
      2205       735  TIP3      H2             23.9992113709      -26.1508894476       -0.2143248426  W2        735             0.0000000000
      2206       736  TIP3      OH2            23.9507713709      -30.7333194476       -6.4410348426  W2        736             0.0000000000
      2207       736  TIP3      H1             23.0256113709      -30.5246594476       -6.5704848426  W2        736             0.0000000000
      2208       736  TIP3      H2             24.4047613709      -30.2492394476       -7.1308048426  W2        736             0.0000000000
      2209       737  TIP3      OH2            23.9143113709      -31.9954194476        1.9032151574  W2        737             0.0000000000
      2210       737  TIP3      H1             23.2493613709      -32.2413894476        2.5463051574  W2        737             0.0000000000
      2211       737  TIP3      H2             23.4714413709      -31.3733794476        1.3260151574  W2        737             0.0000000000
      2212       738  TIP3      OH2            26.1062413709      -18.8200094476        6.0477951574  W2        738             0.0000000000
      2213       738  TIP3      H1             25.2854913709      -18.6453594476        5.5872651574  W2        738             0.0000000000
      2214       738  TIP3      H2             25.8540213709      -18.8935394476        6.9682351574  W2        738             0.0000000000
      2215       739  TIP3      OH2            29.0605313709      -17.8458894476        2.3061951574  W2        739             0.0000000000
      2216       739  TIP3      H1             28.6356413709      -17.0360394476        2.0236551574  W2        739             0.0000000000
      2217       739  TIP3      H2             29.9648113709      -17.7604794476        2.0041751574  W2        739             0.0000000000
      2218       740  TIP3      OH2            26.4622013709      -14.5894994476        2.3537251574  W2        740             0.0000000000
      2219       740  TIP3      H1             25.7418413709      -14.1493994476        1.9024951574  W2        740             0.0000000000
      2220       740  TIP3      H2             26.0966013709      -14.8400294476        3.2021251574  W2        740             0.0000000000
      2221       741  TIP3      OH2            28.9294613709      -14.9891094476        1.3834451574  W2        741             0.0000000000
      2222       741  TIP3      H1             28.0646813709      -14.9172594476        1.7874551574  W2        741             0.0000000000
      2223       741  TIP3      H2             28.8743613709      -14.4423794476        0.5996951574  W2        741             0.0000000000
      2224       742  TIP3      OH2            25.8770113709      -15.9662494476       -0.7360948426  W2        742             0.0000000000
      2225       742  TIP3      H1             25.8586113709      -16.3917394476        0.1211351574  W2        742             0.0000000000
      2226       742  TIP3      H2             26.6818013709      -16.2847494476       -1.1448748426  W2        742             0.0000000000
      2227       743  TIP3      OH2            28.0183213709      -17.2563794476       -2.0811048426  W2        743             0.0000000000
      2228       743  TIP3      H1             27.7993913709      -18.1726394476       -1.9115048426  W2        743             0.0000000000
      2229       743  TIP3      H2             28.8425413709      -17.1163394476       -1.6149648426  W2        743             0.0000000000
      2230       744  TIP3      OH2            30.5555713709      -16.7864494476       -1.2323048426  W2        744             0.0000000000
      2231       744  TIP3      H1             30.7681413709      -17.6745494476       -1.5192148426  W2        744             0.0000000000
      2232       744  TIP3      H2             30.6200813709      -16.8206794476       -0.2779048426  W2        744             0.0000000000
      2233       745  TIP3      OH2            26.3906913709      -32.4883594476       -4.2659848426  W2        745             0.0000000000
      2234       745  TIP3      H1             25.6136713709      -32.7228694476       -4.7733948426  W2        745             0.0000000000
      2235       745  TIP3      H2             26.9210513709      -33.2851494476       -4.2571848426  W2        745             0.0000000000
      2236       746  TIP3      OH2            25.2270313709      -32.6905494476       -8.4623748426  W2        746             0.0000000000
      2237       746  TIP3      H1             25.6661013709      -32.0794994476       -9.0540248426  W2        746             0.0000000000
      2238       746  TIP3      H2             24.5932713709      -32.1521394476       -7.9883748426  W2        746             0.0000000000
      2239       747  TIP3      OH2            30.9699513709      -32.5616494476       -4.4526748426  W2        747             0.0000000000
      2240       747  TIP3      H1             31.8442913709      -32.1732194476       -4.4822448426  W2        747             0.0000000000
      2241       747  TIP3      H2             30.8340313709      -32.7768694476       -3.5299548426  W2        747             0.0000000000
      2242       748  TIP3      OH2            25.1279813709      -16.7423294476       -7.5648648426  W2        748             0.0000000000
      2243       748  TIP3      H1             24.4429713709      -16.7804394476       -8.2323548426  W2        748             0.0000000000
      2244       748  TIP3      H2             25.1317013709      -15.8295694476       -7.2766548426  W2        748             0.0000000000
      2245       749  TIP3      OH2            27.0879413709      -30.7743994476      -10.0199648426  W2        749             0.0000000000
      2246       749  TIP3      H1             27.5792813709      -31.4041594476      -10.5474148426  W2        749             0.0000000000
      2247       749  TIP3      H2             27.7115713709      -30.4784594476       -9.3568448426  W2        749             0.0000000000
      2248       750  TIP3      OH2            32.1139513709      -30.4812494476       -7.5629148426  W2        750             0.0000000000
      2249       750  TIP3      H1             32.2920813709      -31.1279294476       -6.8800548426  W2        750             0.0000000000
      2250       750  TIP3      H2             32.0605713709      -29.6474794476       -7.0958048426  W2        750             0.0000000000
      2251       751  TIP3      OH2            26.3484913709      -31.9741694476        5.2516351574  W2        751             0.0000000000
      2252       751  TIP3      H1             25.9823113709      -32.7399094476        5.6941051574  W2        751             0.0000000000
      2253       751  TIP3      H2             27.2613413709      -31.9451494476        5.5381451574  W2        751             0.0000000000
      2254       752  TIP3      OH2            28.3215713709      -32.6237294476        6.7873451574  W2        752             0.0000000000
      2255       752  TIP3      H1             29.2199313709      -32.8977094476        6.6026851574  W2        752             0.0000000000
      2256       752  TIP3      H2             27.9348813709      -33.3661294476        7.2516051574  W2        752             0.0000000000
      2257       753  TIP3      OH2            26.9461013709      -15.8222494476      -10.5396548426  W2        753             0.0000000000
      2258       753  TIP3      H1             26.6785613709      -15.5359594476       -9.6663448426  W2        753             0.0000000000
      2259       753  TIP3      H2             27.7173613709      -16.3683294476      -10.3874048426  W2        753             0.0000000000
      2260       754  TIP3      OH2           -21.0990486291       -4.4761294476       -4.3072348426  W2        754             0.0000000000
      2261       754  TIP3      H1            -21.0099386291       -3.5323094476       -4.4395248426  W2        754             0.0000000000
      2262       754  TIP3      H2            -21.7372886291       -4.7514894476       -4.9652948426  W2        754             0.0000000000
      2263       755  TIP3      OH2           -22.1659186291       -5.2210594476       -0.8884148426  W2        755             0.0000000000
      2264       755  TIP3      H1            -22.2041686291       -5.8674294476       -0.1834548426  W2        755             0.0000000000
      2265       755  TIP3      H2            -22.4882686291       -5.6876194476       -1.6595448426  W2        755             0.0000000000
      2266       756  TIP3      OH2           -29.7974186291       -5.6068494476        0.7045751574  W2        756             0.0000000000
      2267       756  TIP3      H1            -29.7562086291       -6.2325194476        1.4278151574  W2        756             0.0000000000
      2268       756  TIP3      H2            -29.0946486291       -4.9829894476        0.8866151574  W2        756             0.0000000000
      2269       757  TIP3      OH2           -18.4598986291       -2.2820194476       -2.5869048426  W2        757             0.0000000000
      2270       757  TIP3      H1            -18.9006286291       -3.0024194476       -2.1363448426  W2        757             0.0000000000
      2271       757  TIP3      H2            -18.4729286291       -1.5612994476       -1.9571348426  W2        757             0.0000000000
      2272       758  TIP3      OH2           -28.8741086291       -1.1569594476       -0.7605148426  W2        758             0.0000000000
      2273       758  TIP3      H1            -29.2435886291       -1.9589094476       -1.1300848426  W2        758             0.0000000000
      2274       758  TIP3      H2            -27.9329986291       -1.3254694476       -0.7141748426  W2        758             0.0000000000
      2275       759  TIP3      OH2           -32.2640586291       -7.4966994476       -5.3676348426  W2        759             0.0000000000
      2276       759  TIP3      H1            -32.7117186291       -6.6508294476       -5.3859848426  W2        759             0.0000000000
      2277       759  TIP3      H2            -32.8249386291       -8.0762794476       -5.8831248426  W2        759             0.0000000000
      2278       760  TIP3      OH2           -31.5534486291       -5.3347394476       -3.2418348426  W2        760             0.0000000000
      2279       760  TIP3      H1            -31.3400986291       -6.1045794476       -2.7145348426  W2        760             0.0000000000
      2280       760  TIP3      H2            -30.8156886291       -5.2450694476       -3.8450748426  W2        760             0.0000000000
      2281       761  TIP3      OH2           -21.3483486291        2.8221505524       -2.3748648426  W2        761             0.0000000000
      2282       761  TIP3      H1            -20.7287086291        2.1456205524       -2.6479448426  W2        761             0.0000000000
      2283       761  TIP3      H2            -21.5566086291        2.6042305524       -1.4663748426  W2        761             0.0000000000
      2284       762  TIP3      OH2           -23.7764786291       -2.7889194476       -0.4823148426  W2        762             0.0000000000
      2285       762  TIP3      H1            -23.4726886291       -3.4747794476       -1.0769048426  W2        762             0.0000000000
      2286       762  TIP3      H2            -23.0550786291       -2.6700494476        0.1354851574  W2        762             0.0000000000
      2287       763  TIP3      OH2           -15.1134986291      -11.1873894476        0.3783051574  W2        763             0.0000000000
      2288       763  TIP3      H1            -15.0642786291      -10.5772694476        1.1142151574  W2        763             0.0000000000
      2289       763  TIP3      H2            -14.6879886291      -10.7262994476       -0.3445848426  W2        763             0.0000000000
      2290       764  TIP3      OH2           -20.6357786291       -8.3946794476       -0.1548348426  W2        764             0.0000000000
      2291       764  TIP3      H1            -20.4931886291       -9.3409794476       -0.1346748426  W2        764             0.0000000000
      2292       764  TIP3      H2            -20.7418786291       -8.1876994476       -1.0833448426  W2        764             0.0000000000
      2293       765  TIP3      OH2           -27.4809486291      -10.2930394476       -2.8823548426  W2        765             0.0000000000
      2294       765  TIP3      H1            -27.4378386291       -9.4331894476       -3.3007248426  W2        765             0.0000000000
      2295       765  TIP3      H2            -27.9385386291      -10.8455694476       -3.5160348426  W2        765             0.0000000000
      2296       766  TIP3      OH2           -19.7586786291      -10.1624794476       -4.4815248426  W2        766             0.0000000000
      2297       766  TIP3      H1            -19.1122486291      -10.4911594476       -3.8567648426  W2        766             0.0000000000
      2298       766  TIP3      H2            -19.2487386291       -9.6445794476       -5.1043848426  W2        766             0.0000000000
      2299       767  TIP3      OH2           -30.8607986291       -7.8964594476       -2.1202148426  W2        767             0.0000000000
      2300       767  TIP3      H1            -30.2071386291       -8.4462894476       -1.6882048426  W2        767             0.0000000000
      2301       767  TIP3      H2            -30.8368686291       -8.1705594476       -3.0370148426  W2        767             0.0000000000
      2302       768  TIP3      OH2           -25.7043486291       -6.3463294476       -2.9050648426  W2        768             0.0000000000
      2303       768  TIP3      H1            -25.0882486291       -6.8727894476       -2.3956648426  W2        768             0.0000000000
      2304       768  TIP3      H2            -26.2904686291       -6.9864594476       -3.3087048426  W2        768             0.0000000000
      2305       769  TIP3      OH2           -14.7220386291       -9.7094694476        2.6142851574  W2        769             0.0000000000
      2306       769  TIP3      H1            -15.4105786291       -9.0513994476        2.5189451574  W2        769             0.0000000000
      2307       769  TIP3      H2            -14.7065786291       -9.9066794476        3.5508251574  W2        769             0.0000000000
      2308       770  TIP3      OH2           -28.6707586291      -11.3751994476        1.1917251574  W2        770             0.0000000000
      2309       770  TIP3      H1            -28.8895886291      -10.8451394476        0.4253251574  W2        770             0.0000000000
      2310       770  TIP3      H2            -29.3386686291      -11.1486494476        1.8388651574  W2        770             0.0000000000
      2311       771  TIP3      OH2           -21.3017786291       -1.8750894476       -5.2643648426  W2        771             0.0000000000
      2312       771  TIP3      H1            -21.5972686291       -2.1978594476       -6.1156748426  W2        771             0.0000000000
      2313       771  TIP3      H2            -21.6259986291       -0.9754194476       -5.2231048426  W2        771             0.0000000000
      2314       772  TIP3      OH2           -26.1016186291       -3.6996294476        1.4790951574  W2        772             0.0000000000
      2315       772  TIP3      H1            -26.8417086291       -3.1014794476        1.5826151574  W2        772             0.0000000000
      2316       772  TIP3      H2            -25.3876686291       -3.1456694476        1.1634551574  W2        772             0.0000000000
      2317       773  TIP3      OH2           -17.9948386291      -10.8715494476       -2.5009348426  W2        773             0.0000000000
      2318       773  TIP3      H1            -18.2100386291      -11.6372094476       -1.9683348426  W2        773             0.0000000000
      2319       773  TIP3      H2            -17.3390986291      -10.3990894476       -1.9880848426  W2        773             0.0000000000
      2320       774  TIP3      OH2           -29.0770286291       -9.4830194476       -0.8560548426  W2        774             0.0000000000
      2321       774  TIP3      H1            -28.4633986291       -8.8502594476       -0.4828148426  W2        774             0.0000000000
      2322       774  TIP3      H2            -28.5649586291       -9.9555194476       -1.5123648426  W2        774             0.0000000000
      2323       775  TIP3      OH2           -27.6941886291       -1.7353294476        2.2662451574  W2        775             0.0000000000
      2324       775  TIP3      H1            -27.6994286291       -0.8559794476        1.8881751574  W2        775             0.0000000000
      2325       775  TIP3      H2            -28.5477786291       -1.8189194476        2.6912351574  W2        775             0.0000000000
      2326       776  TIP3      OH2           -31.5730986291       -2.0645394476       -6.9518248426  W2        776             0.0000000000
      2327       776  TIP3      H1            -31.8450086291       -1.8354394476       -7.8405348426  W2        776             0.0000000000
      2328       776  TIP3      H2            -31.5275286291       -1.2266594476       -6.4912948426  W2        776             0.0000000000
      2329       777  TIP3      OH2           -17.9481286291       -0.4429494476       -0.2389748426  W2        777             0.0000000000
      2330       777  TIP3      H1            -18.8897586291       -0.3845594476       -0.0772848426  W2        777             0.0000000000
      2331       777  TIP3      H2            -17.6715186291        0.4631005524       -0.3760048426  W2        777             0.0000000000
      2332       778  TIP3      OH2           -17.6474286291      -12.1564194476        1.1784151574  W2        778             0.0000000000
      2333       778  TIP3      H1            -18.3835086291      -11.5457094476        1.1405451574  W2        778             0.0000000000
      2334       778  TIP3      H2            -16.9640286291      -11.7415194476        0.6520551574  W2        778             0.0000000000
      2335       779  TIP3      OH2           -24.6442886291      -14.0696894476       -1.3557848426  W2        779             0.0000000000
      2336       779  TIP3      H1            -24.7618686291      -15.0180894476       -1.4099548426  W2        779             0.0000000000
      2337       779  TIP3      H2            -25.4992786291      -13.7370794476       -1.0826748426  W2        779             0.0000000000
      2338       780  TIP3      OH2           -19.6960086291        1.3384005524       -3.6138148426  W2        780             0.0000000000
      2339       780  TIP3      H1            -19.2707786291        0.6311905524       -4.0988548426  W2        780             0.0000000000
      2340       780  TIP3      H2            -19.3790086291        2.1396705524       -4.0305948426  W2        780             0.0000000000
      2341       781  TIP3      OH2           -18.5363586291       -0.7607494476       -5.1051548426  W2        781             0.0000000000
      2342       781  TIP3      H1            -18.7938786291       -1.4507394476       -5.7165648426  W2        781             0.0000000000
      2343       781  TIP3      H2            -18.4652786291       -1.2036294476       -4.2595648426  W2        781             0.0000000000
      2344       782  TIP3      OH2           -16.8503386291       -2.1940794476        3.3721951574  W2        782             0.0000000000
      2345       782  TIP3      H1            -16.7107086291       -2.7858294476        2.6328951574  W2        782             0.0000000000
      2346       782  TIP3      H2            -16.6830586291       -1.3214894476        3.0160751574  W2        782             0.0000000000
      2347       783  TIP3      OH2           -22.3777986291       -5.2321294476       -6.8552048426  W2        783             0.0000000000
      2348       783  TIP3      H1            -23.0892486291       -4.6971594476       -7.2071548426  W2        783             0.0000000000
      2349       783  TIP3      H2            -21.6868386291       -5.1769194476       -7.5153148426  W2        783             0.0000000000
      2350       784  TIP3      OH2           -22.3238786291       -6.7746994476       -9.8167048426  W2        784             0.0000000000
      2351       784  TIP3      H1            -21.6228886291       -6.7520094476       -9.1653048426  W2        784             0.0000000000
      2352       784  TIP3      H2            -22.0215886291       -7.4027294476      -10.4727748426  W2        784             0.0000000000
      2353       785  TIP3      OH2           -15.0084086291       -5.8542794476        1.4382351574  W2        785             0.0000000000
      2354       785  TIP3      H1            -15.6609986291       -5.1597194476        1.5273251574  W2        785             0.0000000000
      2355       785  TIP3      H2            -14.5433786291       -5.6441894476        0.6283951574  W2        785             0.0000000000
      2356       786  TIP3      OH2           -18.9720286291       -5.0227994476       -5.9036148426  W2        786             0.0000000000
      2357       786  TIP3      H1            -19.7039286291       -4.7944294476       -5.3305548426  W2        786             0.0000000000
      2358       786  TIP3      H2            -18.5248086291       -5.7365294476       -5.4488648426  W2        786             0.0000000000
      2359       787  TIP3      OH2           -19.0746786291       -6.8485394476        3.1640851574  W2        787             0.0000000000
      2360       787  TIP3      H1            -18.9947686291       -6.0850994476        3.7359351574  W2        787             0.0000000000
      2361       787  TIP3      H2            -19.6759086291       -6.5692994476        2.4735951574  W2        787             0.0000000000
      2362       788  TIP3      OH2           -27.3266586291       -4.3921794476       -4.0211148426  W2        788             0.0000000000
      2363       788  TIP3      H1            -27.6571386291       -4.7628394476       -4.8394148426  W2        788             0.0000000000
      2364       788  TIP3      H2            -26.7382486291       -5.0627794476       -3.6742848426  W2        788             0.0000000000
      2365       789  TIP3      OH2           -25.9599086291       -0.9641194476       -1.3398948426  W2        789             0.0000000000
      2366       789  TIP3      H1            -26.0547786291       -1.5428094476       -2.0964348426  W2        789             0.0000000000
      2367       789  TIP3      H2            -25.2305486291       -1.3355494476       -0.8436148426  W2        789             0.0000000000
      2368       790  TIP3      OH2           -26.9601086291       -5.6236194476       -0.3876148426  W2        790             0.0000000000
      2369       790  TIP3      H1            -26.3948586291       -5.5021994476       -1.1504948426  W2        790             0.0000000000
      2370       790  TIP3      H2            -26.6412186291       -4.9861194476        0.2512351574  W2        790             0.0000000000
      2371       791  TIP3      OH2           -20.6508886291       -0.1204294476        0.3464351574  W2        791             0.0000000000
      2372       791  TIP3      H1            -20.8912286291        0.5418805524        0.9943551574  W2        791             0.0000000000
      2373       791  TIP3      H2            -20.8490686291       -0.9549094476        0.7713951574  W2        791             0.0000000000
      2374       792  TIP3      OH2           -26.0800386291       -1.2243494476        4.3295751574  W2        792             0.0000000000
      2375       792  TIP3      H1            -26.3912886291       -0.4420294476        4.7848951574  W2        792             0.0000000000
      2376       792  TIP3      H2            -26.7300186291       -1.3774394476        3.6437751574  W2        792             0.0000000000
      2377       793  TIP3      OH2           -20.1010786291       -5.8605094476       -8.2184948426  W2        793             0.0000000000
      2378       793  TIP3      H1            -19.5215286291       -5.7104794476       -7.4716048426  W2        793             0.0000000000
      2379       793  TIP3      H2            -19.6870786291       -5.3897694476       -8.9418548426  W2        793             0.0000000000
      2380       794  TIP3      OH2           -29.1600486291       -5.0262394476        3.5581451574  W2        794             0.0000000000
      2381       794  TIP3      H1            -29.0897286291       -4.3755594476        4.2566451574  W2        794             0.0000000000
      2382       794  TIP3      H2            -30.0508286291       -4.9234894476        3.2232351574  W2        794             0.0000000000
      2383       795  TIP3      OH2           -22.3745886291        0.8763405524       -4.7831848426  W2        795             0.0000000000
      2384       795  TIP3      H1            -21.9008286291        1.1719705524       -4.0057648426  W2        795             0.0000000000
      2385       795  TIP3      H2            -22.9376586291        1.6145005524       -5.0162248426  W2        795             0.0000000000
      2386       796  TIP3      OH2           -27.8404486291        0.8471505524        5.0929551574  W2        796             0.0000000000
      2387       796  TIP3      H1            -27.8329186291        0.7111205524        4.1455051574  W2        796             0.0000000000
      2388       796  TIP3      H2            -28.7564086291        0.7299605524        5.3449551574  W2        796             0.0000000000
      2389       797  TIP3      OH2           -16.4022386291      -14.1104694476       -8.4055248426  W2        797             0.0000000000
      2390       797  TIP3      H1            -17.3021686291      -13.9715694476       -8.1104648426  W2        797             0.0000000000
      2391       797  TIP3      H2            -16.1503986291      -13.2790094476       -8.8073548426  W2        797             0.0000000000
      2392       798  TIP3      OH2           -28.3363886291       -5.3227494476       -6.4318348426  W2        798             0.0000000000
      2393       798  TIP3      H1            -28.6282586291       -4.5545794476       -6.9227048426  W2        798             0.0000000000
      2394       798  TIP3      H2            -29.0108686291       -5.9821294476       -6.5946948426  W2        798             0.0000000000
      2395       799  TIP3      OH2           -15.2130986291        0.2557705524      -10.0291348426  W2        799             0.0000000000
      2396       799  TIP3      H1            -15.1397486291        1.1947905524       -9.8586048426  W2        799             0.0000000000
      2397       799  TIP3      H2            -14.3075886291       -0.0493694476      -10.0854048426  W2        799             0.0000000000
      2398       800  TIP3      OH2           -32.2433786291       -2.9598294476        2.3831451574  W2        800             0.0000000000
      2399       800  TIP3      H1            -32.7445386291       -2.9878894476        1.5681151574  W2        800             0.0000000000
      2400       800  TIP3      H2            -32.2380086291       -3.8655094476        2.6928751574  W2        800             0.0000000000
      2401       801  TIP3      OH2           -32.4931086291       -0.1794494476       -0.7328348426  W2        801             0.0000000000
      2402       801  TIP3      H1            -31.5470486291       -0.3237494476       -0.7518848426  W2        801             0.0000000000
      2403       801  TIP3      H2            -32.6054786291        0.6048305524       -0.1957148426  W2        801             0.0000000000
      2404       802  TIP3      OH2           -14.2952586291        0.4865205524        4.9495351574  W2        802             0.0000000000
      2405       802  TIP3      H1            -14.3445786291       -0.4686694476        4.9122951574  W2        802             0.0000000000
      2406       802  TIP3      H2            -15.1220286291        0.7540505524        5.3509151574  W2        802             0.0000000000
      2407       803  TIP3      OH2           -23.3168586291        0.0604405524        3.8256751574  W2        803             0.0000000000
      2408       803  TIP3      H1            -23.2293986291        0.8869005524        4.3005851574  W2        803             0.0000000000
      2409       803  TIP3      H2            -24.1803486291       -0.2691794476        4.0746051574  W2        803             0.0000000000
      2410       804  TIP3      OH2           -22.9022786291        3.8328105524       -6.3682648426  W2        804             0.0000000000
      2411       804  TIP3      H1            -22.9776786291        3.7115305524       -7.3147448426  W2        804             0.0000000000
      2412       804  TIP3      H2            -22.8694086291        4.7820805524       -6.2498048426  W2        804             0.0000000000
      2413       805  TIP3      OH2           -29.2488986291        2.6215105524       -4.5873648426  W2        805             0.0000000000
      2414       805  TIP3      H1            -29.0968586291        2.2735505524       -3.7087148426  W2        805             0.0000000000
      2415       805  TIP3      H2            -30.0998586291        2.2652405524       -4.8426448426  W2        805             0.0000000000
      2416       806  TIP3      OH2           -19.8006786291        2.9868305524       -9.3660248426  W2        806             0.0000000000
      2417       806  TIP3      H1            -19.4258386291        2.2424405524       -9.8367648426  W2        806             0.0000000000
      2418       806  TIP3      H2            -19.7963086291        2.7168905524       -8.4476948426  W2        806             0.0000000000
      2419       807  TIP3      OH2           -20.1318686291        2.9125405524       -6.6168048426  W2        807             0.0000000000
      2420       807  TIP3      H1            -21.0668886291        3.0127305524       -6.4381048426  W2        807             0.0000000000
      2421       807  TIP3      H2            -19.8516786291        2.2031405524       -6.0384848426  W2        807             0.0000000000
      2422       808  TIP3      OH2           -17.1432786291       -8.0202294476        5.4297551574  W2        808             0.0000000000
      2423       808  TIP3      H1            -17.5505986291       -7.5396694476        4.7090851574  W2        808             0.0000000000
      2424       808  TIP3      H2            -17.1027086291       -8.9256294476        5.1218351574  W2        808             0.0000000000
      2425       809  TIP3      OH2           -29.9943286291       -1.6362894476        3.4264251574  W2        809             0.0000000000
      2426       809  TIP3      H1            -29.7781986291       -1.9977294476        4.2860051574  W2        809             0.0000000000
      2427       809  TIP3      H2            -30.8498586291       -2.0109094476        3.2167751574  W2        809             0.0000000000
      2428       810  TIP3      OH2           -27.3755286291      -13.1662394476       -0.5781548426  W2        810             0.0000000000
      2429       810  TIP3      H1            -28.2371586291      -13.2534194476       -0.9858648426  W2        810             0.0000000000
      2430       810  TIP3      H2            -27.3979586291      -12.3102294476       -0.1503948426  W2        810             0.0000000000
      2431       811  TIP3      OH2           -22.7127486291      -13.4441994476        2.7965451574  W2        811             0.0000000000
      2432       811  TIP3      H1            -22.2924386291      -13.8594894476        3.5496051574  W2        811             0.0000000000
      2433       811  TIP3      H2            -23.6457886291      -13.6228694476        2.9137451574  W2        811             0.0000000000
      2434       812  TIP3      OH2           -19.3862586291       -9.6886794476        3.6499951574  W2        812             0.0000000000
      2435       812  TIP3      H1            -19.9003086291       -9.8144594476        4.4475951574  W2        812             0.0000000000
      2436       812  TIP3      H2            -19.5417886291       -8.7763694476        3.4056151574  W2        812             0.0000000000
      2437       813  TIP3      OH2           -18.6237686291       -4.8276794476      -10.5887048426  W2        813             0.0000000000
      2438       813  TIP3      H1            -18.5816886291       -5.0502894476      -11.5187048426  W2        813             0.0000000000
      2439       813  TIP3      H2            -17.7745586291       -4.4289694476      -10.3987148426  W2        813             0.0000000000
      2440       814  TIP3      OH2           -23.0510186291      -10.9518594476       -9.9183748426  W2        814             0.0000000000
      2441       814  TIP3      H1            -23.3045386291      -10.9326994476       -8.9955648426  W2        814             0.0000000000
      2442       814  TIP3      H2            -23.3078086291      -11.8233194476      -10.2197548426  W2        814             0.0000000000
      2443       815  TIP3      OH2           -27.2845186291       -8.2007894476        0.5168651574  W2        815             0.0000000000
      2444       815  TIP3      H1            -27.9263086291       -8.2410594476        1.2258751574  W2        815             0.0000000000
      2445       815  TIP3      H2            -27.2473186291       -7.2743194476        0.2791651574  W2        815             0.0000000000
      2446       816  TIP3      OH2           -27.2876086291       -7.9797794476       -4.5711348426  W2        816             0.0000000000
      2447       816  TIP3      H1            -28.1803186291       -8.3201694476       -4.6297548426  W2        816             0.0000000000
      2448       816  TIP3      H2            -26.8369486291       -8.3566894476       -5.3268148426  W2        816             0.0000000000
      2449       817  TIP3      OH2           -21.7520586291       -7.5637494476       -5.7540548426  W2        817             0.0000000000
      2450       817  TIP3      H1            -22.1610286291       -6.7488894476       -6.0455748426  W2        817             0.0000000000
      2451       817  TIP3      H2            -21.0314386291       -7.7037394476       -6.3683448426  W2        817             0.0000000000
      2452       818  TIP3      OH2           -22.6498986291       -7.3881094476        5.7340151574  W2        818             0.0000000000
      2453       818  TIP3      H1            -23.2125186291       -8.0929494476        6.0547951574  W2        818             0.0000000000
      2454       818  TIP3      H2            -21.8235586291       -7.5089194476        6.2017751574  W2        818             0.0000000000
      2455       819  TIP3      OH2           -20.7472886291       -8.1177094476       -2.9400848426  W2        819             0.0000000000
      2456       819  TIP3      H1            -20.9428386291       -7.5120294476       -3.6550248426  W2        819             0.0000000000
      2457       819  TIP3      H2            -20.5660286291       -8.9511894476       -3.3744548426  W2        819             0.0000000000
      2458       820  TIP3      OH2           -29.5344686291       -7.8804394476        2.3840651574  W2        820             0.0000000000
      2459       820  TIP3      H1            -29.5725286291       -7.4802794476        3.2527751574  W2        820             0.0000000000
      2460       820  TIP3      H2            -30.0253586291       -8.6971994476        2.4743551574  W2        820             0.0000000000
      2461       821  TIP3      OH2           -26.1687286291      -10.5062094476      -10.8173348426  W2        821             0.0000000000
      2462       821  TIP3      H1            -26.5996586291      -10.9511994476      -10.0875948426  W2        821             0.0000000000
      2463       821  TIP3      H2            -26.8868586291      -10.1345794476      -11.3295848426  W2        821             0.0000000000
      2464       822  TIP3      OH2           -32.9263886291      -10.7642594476       -3.7654648426  W2        822             0.0000000000
      2465       822  TIP3      H1            -32.2956186291      -10.7930494476       -3.0460748426  W2        822             0.0000000000
      2466       822  TIP3      H2            -32.4769586291      -11.1893894476       -4.4958748426  W2        822             0.0000000000
      2467       823  TIP3      OH2           -31.6521786291      -10.0180594476       -8.3414248426  W2        823             0.0000000000
      2468       823  TIP3      H1            -31.1780086291       -9.4270694476       -8.9263348426  W2        823             0.0000000000
      2469       823  TIP3      H2            -32.3695386291       -9.4877694476       -7.9944148426  W2        823             0.0000000000
      2470       824  TIP3      OH2           -21.4833686291       -6.4795794476        1.7311551574  W2        824             0.0000000000
      2471       824  TIP3      H1            -21.1598886291       -7.1106094476        1.0882051574  W2        824             0.0000000000
      2472       824  TIP3      H2            -21.9234386291       -7.0143594476        2.3918951574  W2        824             0.0000000000
      2473       825  TIP3      OH2           -24.7060786291      -10.5520294476       -3.4847248426  W2        825             0.0000000000
      2474       825  TIP3      H1            -25.6169686291      -10.4953494476       -3.1961248426  W2        825             0.0000000000
      2475       825  TIP3      H2            -24.2007886291      -10.6124794476       -2.6740048426  W2        825             0.0000000000
      2476       826  TIP3      OH2           -29.8777386291       -8.9233994476       -4.6579648426  W2        826             0.0000000000
      2477       826  TIP3      H1            -30.7669386291       -8.8238494476       -4.9980048426  W2        826             0.0000000000
      2478       826  TIP3      H2            -29.5812486291       -9.7650994476       -5.0041748426  W2        826             0.0000000000
      2479       827  TIP3      OH2           -26.2245586291       -8.9231394476       -7.0015048426  W2        827             0.0000000000
      2480       827  TIP3      H1            -25.2930086291       -8.7941394476       -6.8231948426  W2        827             0.0000000000
      2481       827  TIP3      H2            -26.4395286291       -8.2537094476       -7.6510348426  W2        827             0.0000000000
      2482       828  TIP3      OH2           -20.3008886291      -11.3173994476       -0.2205448426  W2        828             0.0000000000
      2483       828  TIP3      H1            -20.9777286291      -11.1860894476        0.4434251574  W2        828             0.0000000000
      2484       828  TIP3      H2            -20.7863986291      -11.4724494476       -1.0307748426  W2        828             0.0000000000
      2485       829  TIP3      OH2           -27.5505386291       -7.7289194476       -9.4348948426  W2        829             0.0000000000
      2486       829  TIP3      H1            -28.0930286291       -8.1085394476      -10.1261348426  W2        829             0.0000000000
      2487       829  TIP3      H2            -26.7170486291       -7.5344494476       -9.8634848426  W2        829             0.0000000000
      2488       830  TIP3      OH2           -17.0133786291        4.3541405524        6.0562151574  W2        830             0.0000000000
      2489       830  TIP3      H1            -16.8135086291        4.7783305524        5.2217451574  W2        830             0.0000000000
      2490       830  TIP3      H2            -16.3580086291        4.6979605524        6.6632551574  W2        830             0.0000000000
      2491       831  TIP3      OH2           -29.4153986291       -3.1717294476        5.6642651574  W2        831             0.0000000000
      2492       831  TIP3      H1            -28.6831586291       -2.9171394476        6.2257151574  W2        831             0.0000000000
      2493       831  TIP3      H2            -30.1955286291       -2.9671894476        6.1798051574  W2        831             0.0000000000
      2494       832  TIP3      OH2           -23.3861086291       -7.7647294476       -1.5977648426  W2        832             0.0000000000
      2495       832  TIP3      H1            -22.8217686291       -8.3110694476       -2.1448048426  W2        832             0.0000000000
      2496       832  TIP3      H2            -23.5337686291       -8.2865394476       -0.8090048426  W2        832             0.0000000000
      2497       833  TIP3      OH2           -28.3841386291      -11.6281194476       -5.1792848426  W2        833             0.0000000000
      2498       833  TIP3      H1            -28.7011886291      -12.5305894476       -5.2147448426  W2        833             0.0000000000
      2499       833  TIP3      H2            -27.6027286291      -11.6263794476       -5.7321248426  W2        833             0.0000000000
      2500       834  TIP3      OH2           -24.7595186291       -9.3761194476        0.8162751574  W2        834             0.0000000000
      2501       834  TIP3      H1            -25.5949886291       -8.9221694476        0.9265151574  W2        834             0.0000000000
      2502       834  TIP3      H2            -24.2354586291       -9.1002694476        1.5682651574  W2        834             0.0000000000
      2503       835  TIP3      OH2           -24.2152586291       -3.1633494476       -7.4990848426  W2        835             0.0000000000
      2504       835  TIP3      H1            -24.9601586291       -3.6708194476       -7.8212948426  W2        835             0.0000000000
      2505       835  TIP3      H2            -24.3495386291       -3.1145494476       -6.5526048426  W2        835             0.0000000000
      2506       836  TIP3      OH2           -17.0653686291       -4.0305294476        1.2876751574  W2        836             0.0000000000
      2507       836  TIP3      H1            -16.4234886291       -3.5738994476        0.7438951574  W2        836             0.0000000000
      2508       836  TIP3      H2            -17.8956786291       -3.9172894476        0.8250851574  W2        836             0.0000000000
      2509       837  TIP3      OH2           -20.3175786291      -10.3493594476       -9.2998248426  W2        837             0.0000000000
      2510       837  TIP3      H1            -21.2561586291      -10.2377994476       -9.4509448426  W2        837             0.0000000000
      2511       837  TIP3      H2            -20.0203686291       -9.4926694476       -8.9932548426  W2        837             0.0000000000
      2512       838  TIP3      OH2           -22.6960486291       -2.9790194476        3.7378251574  W2        838             0.0000000000
      2513       838  TIP3      H1            -23.0414386291       -3.3607794476        4.5447851574  W2        838             0.0000000000
      2514       838  TIP3      H2            -22.8960386291       -2.0456594476        3.8091151574  W2        838             0.0000000000
      2515       839  TIP3      OH2           -19.5992286291       -8.4820894476       -7.6390848426  W2        839             0.0000000000
      2516       839  TIP3      H1            -18.7073286291       -8.6195894476       -7.3199648426  W2        839             0.0000000000
      2517       839  TIP3      H2            -19.5428686291       -7.6914794476       -8.1757348426  W2        839             0.0000000000
      2518       840  TIP3      OH2           -29.0904286291       -3.8683494476       -1.7292948426  W2        840             0.0000000000
      2519       840  TIP3      H1            -28.3457086291       -3.8707794476       -2.3306448426  W2        840             0.0000000000
      2520       840  TIP3      H2            -29.0127686291       -4.6919694476       -1.2477848426  W2        840             0.0000000000
      2521       841  TIP3      OH2           -22.0898486291       -1.7049194476       -8.4736248426  W2        841             0.0000000000
      2522       841  TIP3      H1            -22.3850086291       -0.8781294476       -8.0921448426  W2        841             0.0000000000
      2523       841  TIP3      H2            -22.7928486291       -2.3242294476       -8.2774848426  W2        841             0.0000000000
      2524       842  TIP3      OH2           -32.0824586291       -5.4076594476        3.5855551574  W2        842             0.0000000000
      2525       842  TIP3      H1            -31.8595986291       -5.8256994476        4.4173051574  W2        842             0.0000000000
      2526       842  TIP3      H2            -32.6844486291       -6.0201594476        3.1628351574  W2        842             0.0000000000
      2527       843  TIP3      OH2           -25.0659686291       -5.8906694476        5.7985251574  W2        843             0.0000000000
      2528       843  TIP3      H1            -25.3618886291       -6.0563694476        4.9034351574  W2        843             0.0000000000
      2529       843  TIP3      H2            -24.1344486291       -6.1106394476        5.7879151574  W2        843             0.0000000000
      2530       844  TIP3      OH2           -20.4456886291       -0.5174694476        3.6883251574  W2        844             0.0000000000
      2531       844  TIP3      H1            -21.3462586291       -0.3342094476        3.4207151574  W2        844             0.0000000000
      2532       844  TIP3      H2            -20.4115786291       -0.2585394476        4.6092051574  W2        844             0.0000000000
      2533       845  TIP3      OH2           -14.7143586291       -8.2726794476       -7.9444148426  W2        845             0.0000000000
      2534       845  TIP3      H1            -15.2687286291       -8.6688794476       -8.6166648426  W2        845             0.0000000000
      2535       845  TIP3      H2            -14.6139986291       -7.3621594476       -8.2220848426  W2        845             0.0000000000
      2536       846  TIP3      OH2           -14.7511586291       -2.4725094476        4.8927351574  W2        846             0.0000000000
      2537       846  TIP3      H1            -15.6023086291       -2.2341294476        4.5253751574  W2        846             0.0000000000
      2538       846  TIP3      H2            -14.1608186291       -2.4891894476        4.1394451574  W2        846             0.0000000000
      2539       847  TIP3      OH2           -16.4191886291        0.5133605524       -7.4792048426  W2        847             0.0000000000
      2540       847  TIP3      H1            -16.7920786291       -0.3122594476       -7.1701448426  W2        847             0.0000000000
      2541       847  TIP3      H2            -16.1418386291        0.3303005524       -8.3768648426  W2        847             0.0000000000
      2542       848  TIP3      OH2           -19.2587986291       -4.6786894476       -0.4580148426  W2        848             0.0000000000
      2543       848  TIP3      H1            -20.1871086291       -4.9104994476       -0.4850848426  W2        848             0.0000000000
      2544       848  TIP3      H2            -18.8076886291       -5.4557094476       -0.7881348426  W2        848             0.0000000000
      2545       849  TIP3      OH2           -26.7154886291       -0.3505294476       -4.3251448426  W2        849             0.0000000000
      2546       849  TIP3      H1            -26.1882686291        0.4229105524       -4.5252648426  W2        849             0.0000000000
      2547       849  TIP3      H2            -27.5956386291       -0.1256094476       -4.6267448426  W2        849             0.0000000000
      2548       850  TIP3      OH2           -30.9607186291       -5.4881194476       -9.7379048426  W2        850             0.0000000000
      2549       850  TIP3      H1            -30.3447286291       -4.8613994476       -9.3584248426  W2        850             0.0000000000
      2550       850  TIP3      H2            -31.8224586291       -5.1721394476       -9.4662548426  W2        850             0.0000000000
      2551       851  TIP3      OH2           -25.2882586291       -2.6875394476       -4.7487148426  W2        851             0.0000000000
      2552       851  TIP3      H1            -25.5292586291       -1.7620994476       -4.7071848426  W2        851             0.0000000000
      2553       851  TIP3      H2            -26.0288986291       -3.1464094476       -4.3523248426  W2        851             0.0000000000
      2554       852  TIP3      OH2           -24.7735986291        1.4618205524        1.5663951574  W2        852             0.0000000000
      2555       852  TIP3      H1            -24.4111286291        2.3163805524        1.3328351574  W2        852             0.0000000000
      2556       852  TIP3      H2            -24.2420786291        1.1699805524        2.3070251574  W2        852             0.0000000000
      2557       853  TIP3      OH2           -26.6051786291        2.3342205524       -5.2034948426  W2        853             0.0000000000
      2558       853  TIP3      H1            -27.5551286291        2.4399605524       -5.1521648426  W2        853             0.0000000000
      2559       853  TIP3      H2            -26.2533686291        3.1549605524       -4.8587448426  W2        853             0.0000000000
      2560       854  TIP3      OH2           -21.2295186291       -2.4391094476        1.2669551574  W2        854             0.0000000000
      2561       854  TIP3      H1            -21.6553886291       -2.6669394476        2.0933551574  W2        854             0.0000000000
      2562       854  TIP3      H2            -20.6489386291       -3.1779294476        1.0844851574  W2        854             0.0000000000
      2563       855  TIP3      OH2           -19.0266286291       -1.5100594476       -9.6591448426  W2        855             0.0000000000
      2564       855  TIP3      H1            -18.6733186291       -1.8900794476       -8.8547948426  W2        855             0.0000000000
      2565       855  TIP3      H2            -19.9752786291       -1.6035794476       -9.5722148426  W2        855             0.0000000000
      2566       856  TIP3      OH2           -18.5710986291        2.1128405524        3.7364351574  W2        856             0.0000000000
      2567       856  TIP3      H1            -19.1727786291        1.5571305524        3.2410651574  W2        856             0.0000000000
      2568       856  TIP3      H2            -18.2897286291        2.7798205524        3.1101751574  W2        856             0.0000000000
      2569       857  TIP3      OH2           -14.5231886291        2.9691905524       -9.4581248426  W2        857             0.0000000000
      2570       857  TIP3      H1            -13.7793986291        3.5552405524       -9.5979648426  W2        857             0.0000000000
      2571       857  TIP3      H2            -15.2173786291        3.5377705524       -9.1248848426  W2        857             0.0000000000
      2572       858  TIP3      OH2           -30.4485086291      -10.6543894476        3.1436951574  W2        858             0.0000000000
      2573       858  TIP3      H1            -31.3412786291      -10.3158494476        3.0760951574  W2        858             0.0000000000
      2574       858  TIP3      H2            -30.5472286291      -11.5097794476        3.5617751574  W2        858             0.0000000000
      2575       859  TIP3      OH2           -18.1606986291       -2.8378594476       -7.4323548426  W2        859             0.0000000000
      2576       859  TIP3      H1            -18.4379386291       -3.5659294476       -6.8762448426  W2        859             0.0000000000
      2577       859  TIP3      H2            -17.2333986291       -2.7186594476       -7.2270948426  W2        859             0.0000000000
      2578       860  TIP3      OH2           -30.7973086291        1.1500505524        1.5786351574  W2        860             0.0000000000
      2579       860  TIP3      H1            -30.5802786291        0.2182905524        1.5476051574  W2        860             0.0000000000
      2580       860  TIP3      H2            -30.5509586291        1.4245505524        2.4619151574  W2        860             0.0000000000
      2581       861  TIP3      OH2           -24.9358486291       -0.3984494476      -11.2121448426  W2        861             0.0000000000
      2582       861  TIP3      H1            -24.6968686291       -1.1466394476      -11.7592548426  W2        861             0.0000000000
      2583       861  TIP3      H2            -25.2047186291       -0.7862794476      -10.3793648426  W2        861             0.0000000000
      2584       862  TIP3      OH2           -25.9987886291       -0.8280694476       -8.7558848426  W2        862             0.0000000000
      2585       862  TIP3      H1            -25.8519886291       -1.3480894476       -7.9657948426  W2        862             0.0000000000
      2586       862  TIP3      H2            -26.0016186291        0.0786905524       -8.4492948426  W2        862             0.0000000000
      2587       863  TIP3      OH2           -29.5456786291       -3.5757394476       -8.2453448426  W2        863             0.0000000000
      2588       863  TIP3      H1            -30.2317486291       -3.2234894476       -7.6783748426  W2        863             0.0000000000
      2589       863  TIP3      H2            -29.0228886291       -2.8127794476       -8.4919148426  W2        863             0.0000000000
      2590       864  TIP3      OH2           -21.7141686291      -10.9133594476        2.0335551574  W2        864             0.0000000000
      2591       864  TIP3      H1            -21.0153786291      -10.8394894476        2.6835251574  W2        864             0.0000000000
      2592       864  TIP3      H2            -22.0950286291      -11.7778594476        2.1878451574  W2        864             0.0000000000
      2593       865  TIP3      OH2           -20.9296786291      -11.2611894476       -6.8692148426  W2        865             0.0000000000
      2594       865  TIP3      H1            -20.7098486291      -10.7896494476       -7.6726748426  W2        865             0.0000000000
      2595       865  TIP3      H2            -20.3712786291      -10.8669294476       -6.1991548426  W2        865             0.0000000000
      2596       866  TIP3      OH2           -23.2610686291        0.8692905524       -8.0064648426  W2        866             0.0000000000
      2597       866  TIP3      H1            -24.0774586291        1.3662605524       -7.9540348426  W2        866             0.0000000000
      2598       866  TIP3      H2            -22.7314386291        1.3446405524       -8.6465848426  W2        866             0.0000000000
      2599       867  TIP3      OH2           -23.7296886291       -9.5333094476       -6.0343748426  W2        867             0.0000000000
      2600       867  TIP3      H1            -22.9174286291       -9.0289894476       -5.9882048426  W2        867             0.0000000000
      2601       867  TIP3      H2            -23.9743886291       -9.6783394476       -5.1204148426  W2        867             0.0000000000
      2602       868  TIP3      OH2           -23.1940486291       -8.5470394476        3.1502851574  W2        868             0.0000000000
      2603       868  TIP3      H1            -23.0750186291       -7.9734994476        3.9073251574  W2        868             0.0000000000
      2604       868  TIP3      H2            -22.5385886291       -9.2350994476        3.2650651574  W2        868             0.0000000000
      2605       869  TIP3      OH2           -22.8460186291      -12.4520094476       -5.0962648426  W2        869             0.0000000000
      2606       869  TIP3      H1            -23.1926686291      -11.8349494476       -4.4518348426  W2        869             0.0000000000
      2607       869  TIP3      H2            -22.1873286291      -11.9514394476       -5.5777148426  W2        869             0.0000000000
      2608       870  TIP3      OH2           -25.9227586291        1.9130105524       -8.0247748426  W2        870             0.0000000000
      2609       870  TIP3      H1            -25.7618886291        2.7127605524       -8.5255148426  W2        870             0.0000000000
      2610       870  TIP3      H2            -26.1199786291        2.2196105524       -7.1397148426  W2        870             0.0000000000
      2611       871  TIP3      OH2           -27.1883186291      -11.3890694476       -8.4090148426  W2        871             0.0000000000
      2612       871  TIP3      H1            -27.2718386291      -10.5007594476       -8.0623748426  W2        871             0.0000000000
      2613       871  TIP3      H2            -26.2982886291      -11.6543994476       -8.1773348426  W2        871             0.0000000000
      2614       872  TIP3      OH2           -16.9894686291      -10.6400094476        3.9852551574  W2        872             0.0000000000
      2615       872  TIP3      H1            -17.9058886291      -10.3778394476        3.8976251574  W2        872             0.0000000000
      2616       872  TIP3      H2            -16.6539686291      -10.6431094476        3.0887851574  W2        872             0.0000000000
      2617       873  TIP3      OH2           -18.3873686291       -6.8899094476       -1.9190148426  W2        873             0.0000000000
      2618       873  TIP3      H1            -19.1849286291       -7.3048894476       -2.2475148426  W2        873             0.0000000000
      2619       873  TIP3      H2            -17.9422586291       -7.5805394476       -1.4279648426  W2        873             0.0000000000
      2620       874  TIP3      OH2           -28.9297886291       -0.9618494476       -9.3485648426  W2        874             0.0000000000
      2621       874  TIP3      H1            -28.3376386291       -0.2623694476       -9.0723248426  W2        874             0.0000000000
      2622       874  TIP3      H2            -28.4704886291       -1.3948994476      -10.0681048426  W2        874             0.0000000000
      2623       875  TIP3      OH2           -30.6138686291       -8.2975494476      -10.2326248426  W2        875             0.0000000000
      2624       875  TIP3      H1            -30.6586086291       -7.3582394476      -10.0539248426  W2        875             0.0000000000
      2625       875  TIP3      H2            -31.5015486291       -8.5330594476      -10.5024148426  W2        875             0.0000000000
      2626       876  TIP3      OH2           -17.3009086291        2.3663405524       -0.2966648426  W2        876             0.0000000000
      2627       876  TIP3      H1            -17.4564786291        3.0447805524       -0.9537348426  W2        876             0.0000000000
      2628       876  TIP3      H2            -16.3682686291        2.4382705524       -0.0936048426  W2        876             0.0000000000
      2629       877  TIP3      OH2           -29.8056686291      -13.5158894476       -1.5595248426  W2        877             0.0000000000
      2630       877  TIP3      H1            -30.0346886291      -13.4566394476       -2.4870248426  W2        877             0.0000000000
      2631       877  TIP3      H2            -30.2483286291      -14.3073394476       -1.2531148426  W2        877             0.0000000000
      2632       878  TIP3      OH2           -30.8753386291        0.4248205524       -5.3989448426  W2        878             0.0000000000
      2633       878  TIP3      H1            -31.7074786291        0.8970905524       -5.3718048426  W2        878             0.0000000000
      2634       878  TIP3      H2            -30.3295086291        0.9345805524       -5.9976348426  W2        878             0.0000000000
      2635       879  TIP3      OH2           -31.5869686291        3.0371905524        5.9308551574  W2        879             0.0000000000
      2636       879  TIP3      H1            -31.0467486291        2.8205905524        6.6907751574  W2        879             0.0000000000
      2637       879  TIP3      H2            -32.0681686291        2.2317905524        5.7411051574  W2        879             0.0000000000
      2638       880  TIP3      OH2           -26.9896286291        1.9566305524        7.5512751574  W2        880             0.0000000000
      2639       880  TIP3      H1            -26.2219086291        1.4977105524        7.8921951574  W2        880             0.0000000000
      2640       880  TIP3      H2            -27.0110086291        1.7306105524        6.6213951574  W2        880             0.0000000000
      2641       881  TIP3      OH2           -22.8976686291        1.4646905524      -11.0735448426  W2        881             0.0000000000
      2642       881  TIP3      H1            -23.5415686291        0.8335505524      -10.7521748426  W2        881             0.0000000000
      2643       881  TIP3      H2            -22.1358386291        0.9334905524      -11.3051948426  W2        881             0.0000000000
      2644       882  TIP3      OH2           -20.4127586291        0.3367405524        6.2804251574  W2        882             0.0000000000
      2645       882  TIP3      H1            -20.7638086291       -0.5199594476        6.5234651574  W2        882             0.0000000000
      2646       882  TIP3      H2            -19.6864386291        0.4794105524        6.8873251574  W2        882             0.0000000000
      2647       883  TIP3      OH2           -18.2933786291        1.2816805524      -10.8397448426  W2        883             0.0000000000
      2648       883  TIP3      H1            -18.0103386291        0.4872005524      -10.3870548426  W2        883             0.0000000000
      2649       883  TIP3      H2            -17.5535886291        1.5147805524      -11.4006348426  W2        883             0.0000000000
      2650       884  TIP3      OH2           -31.6800186291       -3.1523994476        6.8852851574  W2        884             0.0000000000
      2651       884  TIP3      H1            -31.5359686291       -4.0543294476        6.5989551574  W2        884             0.0000000000
      2652       884  TIP3      H2            -32.4522786291       -2.8661894476        6.3975151574  W2        884             0.0000000000
      2653       885  TIP3      OH2           -27.3386486291       -2.8088294476      -10.9822548426  W2        885             0.0000000000
      2654       885  TIP3      H1            -27.2742386291       -3.6028694476      -10.4516148426  W2        885             0.0000000000
      2655       885  TIP3      H2            -26.6857286291       -2.9275494476      -11.6720548426  W2        885             0.0000000000
      2656       886  TIP3      OH2           -25.0244086291       -3.1825894476        6.3179251574  W2        886             0.0000000000
      2657       886  TIP3      H1            -25.3530286291       -2.9117794476        5.4606651574  W2        886             0.0000000000
      2658       886  TIP3      H2            -24.8725886291       -4.1236094476        6.2304251574  W2        886             0.0000000000
      2659       887  TIP3      OH2           -21.9863086291       -1.7616594476      -11.2464548426  W2        887             0.0000000000
      2660       887  TIP3      H1            -22.2548986291       -1.5814494476      -10.3455648426  W2        887             0.0000000000
      2661       887  TIP3      H2            -22.1927486291       -2.6870394476      -11.3778748426  W2        887             0.0000000000
      2662       888  TIP3      OH2           -19.2898886291       -3.2668594476        3.7011551574  W2        888             0.0000000000
      2663       888  TIP3      H1            -18.5444086291       -2.6784894476        3.5815551574  W2        888             0.0000000000
      2664       888  TIP3      H2            -20.0472086291       -2.6848894476        3.7644651574  W2        888             0.0000000000
      2665       889  TIP3      OH2           -30.8473686291       -5.9520694476        6.3052151574  W2        889             0.0000000000
      2666       889  TIP3      H1            -30.4392486291       -6.8094094476        6.1842751574  W2        889             0.0000000000
      2667       889  TIP3      H2            -31.1076086291       -5.9379394476        7.2262451574  W2        889             0.0000000000
      2668       890  TIP3      OH2           -26.1892686291       -4.8362094476       -8.6764548426  W2        890             0.0000000000
      2669       890  TIP3      H1            -26.6490686291       -5.3203794476       -7.9906048426  W2        890             0.0000000000
      2670       890  TIP3      H2            -25.9343986291       -5.5046694476       -9.3124048426  W2        890             0.0000000000
      2671       891  TIP3      OH2           -26.9003386291       -6.9434994476        3.6795051574  W2        891             0.0000000000
      2672       891  TIP3      H1            -27.5187286291       -6.2688394476        3.9599751574  W2        891             0.0000000000
      2673       891  TIP3      H2            -26.5562186291       -6.6221094476        2.8461251574  W2        891             0.0000000000
      2674       892  TIP3      OH2           -25.1182286291       -6.5930294476      -10.4141348426  W2        892             0.0000000000
      2675       892  TIP3      H1            -25.2987286291       -6.7479094476      -11.3413048426  W2        892             0.0000000000
      2676       892  TIP3      H2            -24.1681786291       -6.4851594476      -10.3693448426  W2        892             0.0000000000
      2677       893  TIP3      OH2           -21.8805186291       -4.4719694476        6.9569851574  W2        893             0.0000000000
      2678       893  TIP3      H1            -20.9273986291       -4.3880594476        6.9295851574  W2        893             0.0000000000
      2679       893  TIP3      H2            -22.0410586291       -5.1837894476        7.5764751574  W2        893             0.0000000000
      2680       894  TIP3      OH2           -15.7283986291       -4.2386094476      -10.9683248426  W2        894             0.0000000000
      2681       894  TIP3      H1            -16.0019186291       -4.6630594476      -11.7814948426  W2        894             0.0000000000
      2682       894  TIP3      H2            -15.6889886291       -3.3071594476      -11.1852848426  W2        894             0.0000000000
      2683       895  TIP3      OH2           -26.5609686291       -9.5884194476        4.7618151574  W2        895             0.0000000000
      2684       895  TIP3      H1            -26.4108786291      -10.3172894476        4.1597851574  W2        895             0.0000000000
      2685       895  TIP3      H2            -26.5587286291       -8.8112494476        4.2030351574  W2        895             0.0000000000
      2686       896  TIP3      OH2           -26.1483986291      -11.2188394476        2.2545551574  W2        896             0.0000000000
      2687       896  TIP3      H1            -25.6126486291      -10.7671694476        1.6024851574  W2        896             0.0000000000
      2688       896  TIP3      H2            -27.0004386291      -11.3268594476        1.8319651574  W2        896             0.0000000000
      2689       897  TIP3      OH2           -24.5665586291       -5.7792194476        2.4940751574  W2        897             0.0000000000
      2690       897  TIP3      H1            -23.8160786291       -5.9354694476        1.9208551574  W2        897             0.0000000000
      2691       897  TIP3      H2            -24.9057286291       -4.9275594476        2.2186251574  W2        897             0.0000000000
      2692       898  TIP3      OH2           -20.1509386291       -7.9640394476        7.5226051574  W2        898             0.0000000000
      2693       898  TIP3      H1            -19.9588086291       -8.8950994476        7.4110551574  W2        898             0.0000000000
      2694       898  TIP3      H2            -19.2933086291       -7.5390894476        7.5121451574  W2        898             0.0000000000
      2695       899  TIP3      OH2           -18.8342186291       -5.1755194476        5.5998751574  W2        899             0.0000000000
      2696       899  TIP3      H1            -19.1157186291       -4.4660594476        5.0222551574  W2        899             0.0000000000
      2697       899  TIP3      H2            -17.8917886291       -5.2482194476        5.4489951574  W2        899             0.0000000000
      2698       900  TIP3      OH2           -28.0823386291       -8.3900694476        6.6733751574  W2        900             0.0000000000
      2699       900  TIP3      H1            -28.8494386291       -8.9225894476        6.4631351574  W2        900             0.0000000000
      2700       900  TIP3      H2            -27.4034386291       -8.7000294476        6.0740051574  W2        900             0.0000000000
      2701       901  TIP3      OH2           -25.3428486291      -13.7622694476        2.6859151574  W2        901             0.0000000000
      2702       901  TIP3      H1            -25.4408886291      -12.8159494476        2.5805351574  W2        901             0.0000000000
      2703       901  TIP3      H2            -26.0852286291      -14.1348894476        2.2102651574  W2        901             0.0000000000
      2704       902  TIP3      OH2           -24.0787986291       -9.4407294476        6.2497551574  W2        902             0.0000000000
      2705       902  TIP3      H1            -24.3142586291       -9.6600594476        7.1512451574  W2        902             0.0000000000
      2706       902  TIP3      H2            -24.8621086291       -9.6476094476        5.7400051574  W2        902             0.0000000000
      2707       903  TIP3      OH2           -21.3631386291      -10.3133794476        5.3251051574  W2        903             0.0000000000
      2708       903  TIP3      H1            -22.3105986291      -10.2814094476        5.4574351574  W2        903             0.0000000000
      2709       903  TIP3      H2            -21.0504686291      -10.9386694476        5.9789251574  W2        903             0.0000000000
      2710       904  TIP3      OH2           -19.7289886291      -11.6792694476        7.3302951574  W2        904             0.0000000000
      2711       904  TIP3      H1            -19.8258086291      -12.6315394476        7.3244851574  W2        904             0.0000000000
      2712       904  TIP3      H2            -20.0506786291      -11.4105894476        8.1908451574  W2        904             0.0000000000
      2713       905  TIP3      OH2           -29.9020586291      -10.4696894476        6.3778451574  W2        905             0.0000000000
      2714       905  TIP3      H1            -29.6903186291      -11.1760794476        5.7675951574  W2        905             0.0000000000
      2715       905  TIP3      H2            -30.0133086291      -10.9070894476        7.2219651574  W2        905             0.0000000000
      2716       906  TIP3      OH2           -25.1210386291      -14.4685294476        5.3571951574  W2        906             0.0000000000
      2717       906  TIP3      H1            -24.4091986291      -15.1083094476        5.3431051574  W2        906             0.0000000000
      2718       906  TIP3      H2            -25.2219986291      -14.2016994476        4.4435051574  W2        906             0.0000000000
      2719       907  TIP3      OH2           -24.7672886291      -12.7856894476        7.4108251574  W2        907             0.0000000000
      2720       907  TIP3      H1            -24.8990686291      -13.2613094476        6.5906751574  W2        907             0.0000000000
      2721       907  TIP3      H2            -25.3665486291      -12.0413294476        7.3555351574  W2        907             0.0000000000
      2722       908  TIP3      OH2           -25.2210586291        4.0973405524       -9.4127748426  W2        908             0.0000000000
      2723       908  TIP3      H1            -24.2879886291        4.2552105524       -9.2689348426  W2        908             0.0000000000
      2724       908  TIP3      H2            -25.4851786291        4.7726405524      -10.0376248426  W2        908             0.0000000000
      2725       909  TIP3      OH2           -31.6525686291       -1.2662794476       -9.9299648426  W2        909             0.0000000000
      2726       909  TIP3      H1            -30.7386486291       -1.1873894476       -9.6565748426  W2        909             0.0000000000
      2727       909  TIP3      H2            -31.6452586291       -1.9533194476      -10.5964048426  W2        909             0.0000000000
      2728       910  TIP3      OH2           -33.0035086291        4.1265705524       -4.8525748426  W2        910             0.0000000000
      2729       910  TIP3      H1            -33.6507986291        3.6647405524       -5.3854548426  W2        910             0.0000000000
      2730       910  TIP3      H2            -32.6490486291        3.4549005524       -4.2699548426  W2        910             0.0000000000
      2731       911  TIP3      OH2           -32.1335886291        2.2072705524       -3.0479548426  W2        911             0.0000000000
      2732       911  TIP3      H1            -32.4679086291        1.3270005524       -2.8759348426  W2        911             0.0000000000
      2733       911  TIP3      H2            -31.9113486291        2.5527705524       -2.1833948426  W2        911             0.0000000000
      2734       912  TIP3      OH2           -14.5851086291        3.0169105524       -0.0674748426  W2        912             0.0000000000
      2735       912  TIP3      H1            -14.6064386291        3.2017505524        0.8714651574  W2        912             0.0000000000
      2736       912  TIP3      H2            -13.8944886291        3.5853105524       -0.4083348426  W2        912             0.0000000000
      2737       913  TIP3      OH2           -15.0218186291        2.5840205524        2.8544351574  W2        913             0.0000000000
      2738       913  TIP3      H1            -15.5089486291        1.8484305524        2.4831751574  W2        913             0.0000000000
      2739       913  TIP3      H2            -14.4725486291        2.1904105524        3.5323751574  W2        913             0.0000000000
      2740       914  TIP3      OH2           -16.5710886291       -1.6261694476        7.4924651574  W2        914             0.0000000000
      2741       914  TIP3      H1            -17.4369786291       -1.7311994476        7.8866951574  W2        914             0.0000000000
      2742       914  TIP3      H2            -16.1944986291       -0.8678394476        7.9389351574  W2        914             0.0000000000
      2743       915  TIP3      OH2           -15.2701186291       -3.3697994476       -6.9932848426  W2        915             0.0000000000
      2744       915  TIP3      H1            -14.4199786291       -2.9487094476       -6.8661248426  W2        915             0.0000000000
      2745       915  TIP3      H2            -15.2646086291       -4.1097894476       -6.3861448426  W2        915             0.0000000000
      2746       916  TIP3      OH2           -14.8755586291       -5.3160594476       -5.1697148426  W2        916             0.0000000000
      2747       916  TIP3      H1            -15.6020986291       -5.7957994476       -4.7719548426  W2        916             0.0000000000
      2748       916  TIP3      H2            -14.2942286291       -5.1105894476       -4.4375548426  W2        916             0.0000000000
      2749       917  TIP3      OH2           -15.1164386291       -2.5313094476       -0.2219548426  W2        917             0.0000000000
      2750       917  TIP3      H1            -14.2830186291       -2.9093094476       -0.5025948426  W2        917             0.0000000000
      2751       917  TIP3      H2            -15.0044086291       -1.5881894476       -0.3410448426  W2        917             0.0000000000
      2752       918  TIP3      OH2           -16.6302086291        0.3464405524        2.0848851574  W2        918             0.0000000000
      2753       918  TIP3      H1            -17.2776786291        0.6715905524        2.7104051574  W2        918             0.0000000000
      2754       918  TIP3      H2            -17.1478086291       -0.0937894476        1.4107151574  W2        918             0.0000000000
      2755       919  TIP3      OH2           -14.6072486291       -5.4152094476       -8.7785848426  W2        919             0.0000000000
      2756       919  TIP3      H1            -15.1291386291       -5.0587994476       -9.4974948426  W2        919             0.0000000000
      2757       919  TIP3      H2            -14.6403286291       -4.7404294476       -8.1004948426  W2        919             0.0000000000
      2758       920  TIP3      OH2           -16.2583486291       -8.1756494476      -10.2278748426  W2        920             0.0000000000
      2759       920  TIP3      H1            -16.1619086291       -7.5089494476      -10.9079048426  W2        920             0.0000000000
      2760       920  TIP3      H2            -16.3983886291       -8.9910194476      -10.7093248426  W2        920             0.0000000000
      2761       921  TIP3      OH2           -17.0888786291       -6.7954094476       -4.6068448426  W2        921             0.0000000000
      2762       921  TIP3      H1            -17.2389986291       -7.7405494476       -4.6270648426  W2        921             0.0000000000
      2763       921  TIP3      H2            -17.4424286291       -6.5142694476       -3.7629348426  W2        921             0.0000000000
      2764       922  TIP3      OH2           -32.0536386291       -4.7171894476       -0.5964648426  W2        922             0.0000000000
      2765       922  TIP3      H1            -31.8693486291       -4.7990194476       -1.5321748426  W2        922             0.0000000000
      2766       922  TIP3      H2            -31.2043486291       -4.8414894476       -0.1728248426  W2        922             0.0000000000
      2767       923  TIP3      OH2           -16.2325886291       -4.8250794476        5.0319851574  W2        923             0.0000000000
      2768       923  TIP3      H1            -15.6498586291       -5.5598494476        5.2237051574  W2        923             0.0000000000
      2769       923  TIP3      H2            -15.6686586291       -4.0530494476        5.0785651574  W2        923             0.0000000000
      2770       924  TIP3      OH2           -14.7358786291       -6.9224994476        5.7165251574  W2        924             0.0000000000
      2771       924  TIP3      H1            -15.5992086291       -7.3012894476        5.5509951574  W2        924             0.0000000000
      2772       924  TIP3      H2            -14.1315086291       -7.6610194476        5.6421051574  W2        924             0.0000000000
      2773       925  TIP3      OH2           -17.0109686291      -10.7676694476      -11.1103248426  W2        925             0.0000000000
      2774       925  TIP3      H1            -16.4003886291      -11.1389894476      -10.4735048426  W2        925             0.0000000000
      2775       925  TIP3      H2            -17.8478186291      -11.1889794476      -10.9143248426  W2        925             0.0000000000
      2776       926  TIP3      OH2           -17.3783986291       -9.2128294476       -6.1443348426  W2        926             0.0000000000
      2777       926  TIP3      H1            -17.0986886291      -10.1197894476       -6.0201648426  W2        926             0.0000000000
      2778       926  TIP3      H2            -16.6192286291       -8.7786794476       -6.5334148426  W2        926             0.0000000000
      2779       927  TIP3      OH2           -16.7665686291       -8.6310894476       -0.7084448426  W2        927             0.0000000000
      2780       927  TIP3      H1            -15.8337686291       -8.4190994476       -0.7428448426  W2        927             0.0000000000
      2781       927  TIP3      H2            -17.0018186291       -8.5298794476        0.2138551574  W2        927             0.0000000000
      2782       928  TIP3      OH2           -16.7373786291       -7.8945594476        2.0674951574  W2        928             0.0000000000
      2783       928  TIP3      H1            -17.5802486291       -7.6265194476        2.4334751574  W2        928             0.0000000000
      2784       928  TIP3      H2            -16.2949486291       -7.0723694476        1.8566051574  W2        928             0.0000000000
      2785       929  TIP3      OH2           -32.4561586291       -9.4466894476        5.5444151574  W2        929             0.0000000000
      2786       929  TIP3      H1            -31.5366686291       -9.5688594476        5.7807251574  W2        929             0.0000000000
      2787       929  TIP3      H2            -32.9057086291      -10.1967194476        5.9337651574  W2        929             0.0000000000
      2788       930  TIP3      OH2           -14.4542186291      -13.9145394476        7.4209951574  W2        930             0.0000000000
      2789       930  TIP3      H1            -14.1045186291      -14.5681894476        6.8154651574  W2        930             0.0000000000
      2790       930  TIP3      H2            -14.3072686291      -13.0771294476        6.9812551574  W2        930             0.0000000000
      2791       931  TIP3      OH2           -16.7649186291      -11.9498994476       -6.0961348426  W2        931             0.0000000000
      2792       931  TIP3      H1            -16.5824186291      -12.3987494476       -5.2706348426  W2        931             0.0000000000
      2793       931  TIP3      H2            -17.3646286291      -12.5344594476       -6.5596748426  W2        931             0.0000000000
      2794       932  TIP3      OH2           -31.2349086291      -11.1345294476       -1.5642948426  W2        932             0.0000000000
      2795       932  TIP3      H1            -30.7897486291      -11.9262794476       -1.2623248426  W2        932             0.0000000000
      2796       932  TIP3      H2            -30.7686086291      -10.4180094476       -1.1337348426  W2        932             0.0000000000
      2797       933  TIP3      OH2           -32.9308786291       -8.1352294476       -0.4952748426  W2        933             0.0000000000
      2798       933  TIP3      H1            -32.4388986291       -8.3561794476       -1.2860748426  W2        933             0.0000000000
      2799       933  TIP3      H2            -32.5687886291       -7.2948894476       -0.2143248426  W2        933             0.0000000000
      2800       934  TIP3      OH2           -14.9344986291      -11.8050794476        5.7701251574  W2        934             0.0000000000
      2801       934  TIP3      H1            -15.8519286291      -11.5343694476        5.7344751574  W2        934             0.0000000000
      2802       934  TIP3      H2            -14.8115586291      -12.3402394476        4.9860951574  W2        934             0.0000000000
      2803       935  TIP3      OH2           -14.8982986291      -11.8820894476       -9.5681048426  W2        935             0.0000000000
      2804       935  TIP3      H1            -14.4860386291      -12.6035194476      -10.0433048426  W2        935             0.0000000000
      2805       935  TIP3      H2            -14.2166486291      -11.2126294476       -9.5096748426  W2        935             0.0000000000
      2806       936  TIP3      OH2           -32.6172286291      -11.8773194476       -6.4410348426  W2        936             0.0000000000
      2807       936  TIP3      H1            -33.5423886291      -11.6686594476       -6.5704848426  W2        936             0.0000000000
      2808       936  TIP3      H2            -32.1632386291      -11.3932394476       -7.1308048426  W2        936             0.0000000000
      2809       937  TIP3      OH2           -17.8465086291        3.1068505524       -4.4952948426  W2        937             0.0000000000
      2810       937  TIP3      H1            -17.1942186291        2.7590605524       -5.1033848426  W2        937             0.0000000000
      2811       937  TIP3      H2            -17.3361286291        3.5951705524       -3.8493248426  W2        937             0.0000000000
      2812       938  TIP3      OH2           -32.6536886291      -13.1394194476        1.9032151574  W2        938             0.0000000000
      2813       938  TIP3      H1            -33.3186386291      -13.3853894476        2.5463051574  W2        938             0.0000000000
      2814       938  TIP3      H2            -33.0965586291      -12.5173794476        1.3260151574  W2        938             0.0000000000
      2815       939  TIP3      OH2           -30.4617586291        0.0359905524        6.0477951574  W2        939             0.0000000000
      2816       939  TIP3      H1            -31.2825086291        0.2106405524        5.5872651574  W2        939             0.0000000000
      2817       939  TIP3      H2            -30.7139786291       -0.0375394476        6.9682351574  W2        939             0.0000000000
      2818       940  TIP3      OH2           -27.5074686291        1.0101105524        2.3061951574  W2        940             0.0000000000
      2819       940  TIP3      H1            -27.9323586291        1.8199605524        2.0236551574  W2        940             0.0000000000
      2820       940  TIP3      H2            -26.6031886291        1.0955205524        2.0041751574  W2        940             0.0000000000
      2821       941  TIP3      OH2           -23.1963286291        2.4091105524        5.2655651574  W2        941             0.0000000000
      2822       941  TIP3      H1            -23.0115786291        2.0757205524        6.1435951574  W2        941             0.0000000000
      2823       941  TIP3      H2            -22.3498786291        2.7189705524        4.9434851574  W2        941             0.0000000000
      2824       942  TIP3      OH2           -20.8512886291        3.6950005524        4.5097051574  W2        942             0.0000000000
      2825       942  TIP3      H1            -20.1743986291        3.0622305524        4.2696251574  W2        942             0.0000000000
      2826       942  TIP3      H2            -20.5294086291        4.0960505524        5.3170351574  W2        942             0.0000000000
      2827       943  TIP3      OH2           -15.9339086291      -13.7154494476        3.5892051574  W2        943             0.0000000000
      2828       943  TIP3      H1            -16.7465586291      -13.3904194476        3.2016751574  W2        943             0.0000000000
      2829       943  TIP3      H2            -15.7010586291      -14.4755994476        3.0561151574  W2        943             0.0000000000
      2830       944  TIP3      OH2           -30.1057986291        4.2665005524        2.3537251574  W2        944             0.0000000000
      2831       944  TIP3      H1            -30.8261586291        4.7066005524        1.9024951574  W2        944             0.0000000000
      2832       944  TIP3      H2            -30.4713986291        4.0159705524        3.2021251574  W2        944             0.0000000000
      2833       945  TIP3      OH2           -27.6385386291        3.8668905524        1.3834451574  W2        945             0.0000000000
      2834       945  TIP3      H1            -28.5033186291        3.9387405524        1.7874551574  W2        945             0.0000000000
      2835       945  TIP3      H2            -27.6936386291        4.4136205524        0.5996951574  W2        945             0.0000000000
      2836       946  TIP3      OH2           -22.9279786291        3.7547805524        0.5590451574  W2        946             0.0000000000
      2837       946  TIP3      H1            -23.3845786291        4.2837505524       -0.0951148426  W2        946             0.0000000000
      2838       946  TIP3      H2            -22.7651786291        4.3579205524        1.2842751574  W2        946             0.0000000000
      2839       947  TIP3      OH2           -20.6003486291        2.6327405524        1.5040751574  W2        947             0.0000000000
      2840       947  TIP3      H1            -21.5049786291        2.7977605524        1.2382851574  W2        947             0.0000000000
      2841       947  TIP3      H2            -20.1714886291        3.4859605524        1.4384151574  W2        947             0.0000000000
      2842       948  TIP3      OH2           -17.9961586291        4.2026505524        1.7988551574  W2        948             0.0000000000
      2843       948  TIP3      H1            -18.1779586291        5.1185405524        1.5883451574  W2        948             0.0000000000
      2844       948  TIP3      H2            -17.8193786291        3.7923605524        0.9523151574  W2        948             0.0000000000
      2845       949  TIP3      OH2           -30.6909886291        2.8897505524       -0.7360948426  W2        949             0.0000000000
      2846       949  TIP3      H1            -30.7093886291        2.4642605524        0.1211351574  W2        949             0.0000000000
      2847       949  TIP3      H2            -29.8861986291        2.5712505524       -1.1448748426  W2        949             0.0000000000
      2848       950  TIP3      OH2           -28.5496786291        1.5996205524       -2.0811048426  W2        950             0.0000000000
      2849       950  TIP3      H1            -28.7686086291        0.6833605524       -1.9115048426  W2        950             0.0000000000
      2850       950  TIP3      H2            -27.7254586291        1.7396605524       -1.6149648426  W2        950             0.0000000000
      2851       951  TIP3      OH2           -26.0124286291        2.0695505524       -1.2323048426  W2        951             0.0000000000
      2852       951  TIP3      H1            -25.7998586291        1.1814505524       -1.5192148426  W2        951             0.0000000000
      2853       951  TIP3      H2            -25.9479186291        2.0353205524       -0.2779048426  W2        951             0.0000000000
      2854       952  TIP3      OH2           -22.5040586291      -12.2663894476       -2.0879748426  W2        952             0.0000000000
      2855       952  TIP3      H1            -23.1783786291      -12.8958294476       -1.8323948426  W2        952             0.0000000000
      2856       952  TIP3      H2            -21.9401386291      -12.7504994476       -2.6911848426  W2        952             0.0000000000
      2857       953  TIP3      OH2           -17.3613386291      -14.1589894476       -1.9752648426  W2        953             0.0000000000
      2858       953  TIP3      H1            -16.7575786291      -13.6114494476       -2.4771648426  W2        953             0.0000000000
      2859       953  TIP3      H2            -18.2311386291      -13.8399494476       -2.2158548426  W2        953             0.0000000000
      2860       954  TIP3      OH2           -15.6342986291      -13.0201194476       -3.6421748426  W2        954             0.0000000000
      2861       954  TIP3      H1            -15.0225486291      -13.5345494476       -4.1688148426  W2        954             0.0000000000
      2862       954  TIP3      H2            -15.2519586291      -12.1429094476       -3.6187348426  W2        954             0.0000000000
      2863       955  TIP3      OH2           -30.1773086291      -13.6323594476       -4.2659848426  W2        955             0.0000000000
      2864       955  TIP3      H1            -30.9543286291      -13.8668694476       -4.7733948426  W2        955             0.0000000000
      2865       955  TIP3      H2            -29.6469486291      -14.4291494476       -4.2571848426  W2        955             0.0000000000
      2866       956  TIP3      OH2           -31.3409686291      -13.8345494476       -8.4623748426  W2        956             0.0000000000
      2867       956  TIP3      H1            -30.9018986291      -13.2234994476       -9.0540248426  W2        956             0.0000000000
      2868       956  TIP3      H2            -31.9747286291      -13.2961394476       -7.9883748426  W2        956             0.0000000000
      2869       957  TIP3      OH2           -25.5980486291      -13.7056494476       -4.4526748426  W2        957             0.0000000000
      2870       957  TIP3      H1            -24.7237086291      -13.3172194476       -4.4822448426  W2        957             0.0000000000
      2871       957  TIP3      H2            -25.7339686291      -13.9208694476       -3.5299548426  W2        957             0.0000000000
      2872       958  TIP3      OH2           -20.0412086291      -13.6756694476       -2.8035048426  W2        958             0.0000000000
      2873       958  TIP3      H1            -19.9650486291      -13.5805094476       -3.7529048426  W2        958             0.0000000000
      2874       958  TIP3      H2            -20.3162886291      -14.5833794476       -2.6745948426  W2        958             0.0000000000
      2875       959  TIP3      OH2           -18.6879486291      -13.6498894476       -7.1110048426  W2        959             0.0000000000
      2876       959  TIP3      H1            -19.3908386291      -13.0349694476       -7.3208648426  W2        959             0.0000000000
      2877       959  TIP3      H2            -19.1328086291      -14.4872194476       -6.9799148426  W2        959             0.0000000000
      2878       960  TIP3      OH2           -31.4400186291        2.1136705524       -7.5648648426  W2        960             0.0000000000
      2879       960  TIP3      H1            -32.1250286291        2.0755605524       -8.2323548426  W2        960             0.0000000000
      2880       960  TIP3      H2            -31.4362986291        3.0264305524       -7.2766548426  W2        960             0.0000000000
      2881       961  TIP3      OH2           -29.4800586291      -11.9183994476      -10.0199648426  W2        961             0.0000000000
      2882       961  TIP3      H1            -28.9887186291      -12.5481594476      -10.5474148426  W2        961             0.0000000000
      2883       961  TIP3      H2            -28.8564286291      -11.6224594476       -9.3568448426  W2        961             0.0000000000
      2884       962  TIP3      OH2           -24.4540486291      -11.6252494476       -7.5629148426  W2        962             0.0000000000
      2885       962  TIP3      H1            -24.2759186291      -12.2719294476       -6.8800548426  W2        962             0.0000000000
      2886       962  TIP3      H2            -24.5074286291      -10.7914794476       -7.0958048426  W2        962             0.0000000000
      2887       963  TIP3      OH2           -22.5756686291        3.3231605524       -9.1672448426  W2        963             0.0000000000
      2888       963  TIP3      H1            -21.7096486291        3.6899005524       -9.3454248426  W2        963             0.0000000000
      2889       963  TIP3      H2            -22.8223886291        2.8839605524       -9.9811648426  W2        963             0.0000000000
      2890       964  TIP3      OH2           -15.8667086291        2.8861905524       -6.4881348426  W2        964             0.0000000000
      2891       964  TIP3      H1            -16.0609986291        2.1384005524       -7.0531748426  W2        964             0.0000000000
      2892       964  TIP3      H2            -15.9056986291        3.6442005524       -7.0713448426  W2        964             0.0000000000
      2893       965  TIP3      OH2           -30.2195086291      -13.1181694476        5.2516351574  W2        965             0.0000000000
      2894       965  TIP3      H1            -30.5856886291      -13.8839094476        5.6941051574  W2        965             0.0000000000
      2895       965  TIP3      H2            -29.3066586291      -13.0891494476        5.5381451574  W2        965             0.0000000000
      2896       966  TIP3      OH2           -28.2464286291      -13.7677294476        6.7873451574  W2        966             0.0000000000
      2897       966  TIP3      H1            -27.3480686291      -14.0417094476        6.6026851574  W2        966             0.0000000000
      2898       966  TIP3      H2            -28.6331186291      -14.5101294476        7.2516051574  W2        966             0.0000000000
      2899       967  TIP3      OH2           -29.6218986291        3.0337505524      -10.5396548426  W2        967             0.0000000000
      2900       967  TIP3      H1            -29.8894386291        3.3200405524       -9.6663448426  W2        967             0.0000000000
      2901       967  TIP3      H2            -28.8506386291        2.4876705524      -10.3874048426  W2        967             0.0000000000
      2902       968  TIP3      OH2           -19.8251986291      -14.4351994476        6.9696251574  W2        968             0.0000000000
      2903       968  TIP3      H1            -19.7484786291      -14.8611294476        7.8233951574  W2        968             0.0000000000
      2904       968  TIP3      H2            -18.9315386291      -14.4217294476        6.6269751574  W2        968             0.0000000000
      2905       969  TIP3      OH2           -16.6490886291        1.6374305524        5.6620451574  W2        969             0.0000000000
      2906       969  TIP3      H1            -17.4308986291        1.4512305524        5.1421051574  W2        969             0.0000000000
      2907       969  TIP3      H2            -16.7210986291        2.5668605524        5.8792951574  W2        969             0.0000000000
      2908       970  TIP3      OH2            -2.2430486291       -4.4761294476       -4.3072348426  W2        970             0.0000000000
      2909       970  TIP3      H1             -2.1539386291       -3.5323094476       -4.4395248426  W2        970             0.0000000000
      2910       970  TIP3      H2             -2.8812886291       -4.7514894476       -4.9652948426  W2        970             0.0000000000
      2911       971  TIP3      OH2            -3.3099186291       -5.2210594476       -0.8884148426  W2        971             0.0000000000
      2912       971  TIP3      H1             -3.3481686291       -5.8674294476       -0.1834548426  W2        971             0.0000000000
      2913       971  TIP3      H2             -3.6322686291       -5.6876194476       -1.6595448426  W2        971             0.0000000000
      2914       972  TIP3      OH2           -10.9414186291       -5.6068494476        0.7045751574  W2        972             0.0000000000
      2915       972  TIP3      H1            -10.9002086291       -6.2325194476        1.4278151574  W2        972             0.0000000000
      2916       972  TIP3      H2            -10.2386486291       -4.9829894476        0.8866151574  W2        972             0.0000000000
      2917       973  TIP3      OH2             0.3961013709       -2.2820194476       -2.5869048426  W2        973             0.0000000000
      2918       973  TIP3      H1             -0.0446286291       -3.0024194476       -2.1363448426  W2        973             0.0000000000
      2919       973  TIP3      H2              0.3830713709       -1.5612994476       -1.9571348426  W2        973             0.0000000000
      2920       974  TIP3      OH2           -10.0181086291       -1.1569594476       -0.7605148426  W2        974             0.0000000000
      2921       974  TIP3      H1            -10.3875886291       -1.9589094476       -1.1300848426  W2        974             0.0000000000
      2922       974  TIP3      H2             -9.0769986291       -1.3254694476       -0.7141748426  W2        974             0.0000000000
      2923       975  TIP3      OH2           -13.4080586291       -7.4966994476       -5.3676348426  W2        975             0.0000000000
      2924       975  TIP3      H1            -13.8557186291       -6.6508294476       -5.3859848426  W2        975             0.0000000000
      2925       975  TIP3      H2            -13.9689386291       -8.0762794476       -5.8831248426  W2        975             0.0000000000
      2926       976  TIP3      OH2           -12.6974486291       -5.3347394476       -3.2418348426  W2        976             0.0000000000
      2927       976  TIP3      H1            -12.4840986291       -6.1045794476       -2.7145348426  W2        976             0.0000000000
      2928       976  TIP3      H2            -11.9596886291       -5.2450694476       -3.8450748426  W2        976             0.0000000000
      2929       977  TIP3      OH2            -2.4923486291        2.8221505524       -2.3748648426  W2        977             0.0000000000
      2930       977  TIP3      H1             -1.8727086291        2.1456205524       -2.6479448426  W2        977             0.0000000000
      2931       977  TIP3      H2             -2.7006086291        2.6042305524       -1.4663748426  W2        977             0.0000000000
      2932       978  TIP3      OH2            -4.9204786291       -2.7889194476       -0.4823148426  W2        978             0.0000000000
      2933       978  TIP3      H1             -4.6166886291       -3.4747794476       -1.0769048426  W2        978             0.0000000000
      2934       978  TIP3      H2             -4.1990786291       -2.6700494476        0.1354851574  W2        978             0.0000000000
      2935       979  TIP3      OH2             3.7425013709      -11.1873894476        0.3783051574  W2        979             0.0000000000
      2936       979  TIP3      H1              3.7917213709      -10.5772694476        1.1142151574  W2        979             0.0000000000
      2937       979  TIP3      H2              4.1680113709      -10.7262994476       -0.3445848426  W2        979             0.0000000000
      2938       980  TIP3      OH2            -1.7797786291       -8.3946794476       -0.1548348426  W2        980             0.0000000000
      2939       980  TIP3      H1             -1.6371886291       -9.3409794476       -0.1346748426  W2        980             0.0000000000
      2940       980  TIP3      H2             -1.8858786291       -8.1876994476       -1.0833448426  W2        980             0.0000000000
      2941       981  TIP3      OH2            -8.6249486291      -10.2930394476       -2.8823548426  W2        981             0.0000000000
      2942       981  TIP3      H1             -8.5818386291       -9.4331894476       -3.3007248426  W2        981             0.0000000000
      2943       981  TIP3      H2             -9.0825386291      -10.8455694476       -3.5160348426  W2        981             0.0000000000
      2944       982  TIP3      OH2            -0.9026786291      -10.1624794476       -4.4815248426  W2        982             0.0000000000
      2945       982  TIP3      H1             -0.2562486291      -10.4911594476       -3.8567648426  W2        982             0.0000000000
      2946       982  TIP3      H2             -0.3927386291       -9.6445794476       -5.1043848426  W2        982             0.0000000000
      2947       983  TIP3      OH2           -12.0047986291       -7.8964594476       -2.1202148426  W2        983             0.0000000000
      2948       983  TIP3      H1            -11.3511386291       -8.4462894476       -1.6882048426  W2        983             0.0000000000
      2949       983  TIP3      H2            -11.9808686291       -8.1705594476       -3.0370148426  W2        983             0.0000000000
      2950       984  TIP3      OH2            -6.8483486291       -6.3463294476       -2.9050648426  W2        984             0.0000000000
      2951       984  TIP3      H1             -6.2322486291       -6.8727894476       -2.3956648426  W2        984             0.0000000000
      2952       984  TIP3      H2             -7.4344686291       -6.9864594476       -3.3087048426  W2        984             0.0000000000
      2953       985  TIP3      OH2             4.1339613709       -9.7094694476        2.6142851574  W2        985             0.0000000000
      2954       985  TIP3      H1              3.4454213709       -9.0513994476        2.5189451574  W2        985             0.0000000000
      2955       985  TIP3      H2              4.1494213709       -9.9066794476        3.5508251574  W2        985             0.0000000000
      2956       986  TIP3      OH2            -9.8147586291      -11.3751994476        1.1917251574  W2        986             0.0000000000
      2957       986  TIP3      H1            -10.0335886291      -10.8451394476        0.4253251574  W2        986             0.0000000000
      2958       986  TIP3      H2            -10.4826686291      -11.1486494476        1.8388651574  W2        986             0.0000000000
      2959       987  TIP3      OH2            -2.4457786291       -1.8750894476       -5.2643648426  W2        987             0.0000000000
      2960       987  TIP3      H1             -2.7412686291       -2.1978594476       -6.1156748426  W2        987             0.0000000000
      2961       987  TIP3      H2             -2.7699986291       -0.9754194476       -5.2231048426  W2        987             0.0000000000
      2962       988  TIP3      OH2            -7.2456186291       -3.6996294476        1.4790951574  W2        988             0.0000000000
      2963       988  TIP3      H1             -7.9857086291       -3.1014794476        1.5826151574  W2        988             0.0000000000
      2964       988  TIP3      H2             -6.5316686291       -3.1456694476        1.1634551574  W2        988             0.0000000000
      2965       989  TIP3      OH2             0.8611613709      -10.8715494476       -2.5009348426  W2        989             0.0000000000
      2966       989  TIP3      H1              0.6459613709      -11.6372094476       -1.9683348426  W2        989             0.0000000000
      2967       989  TIP3      H2              1.5169013709      -10.3990894476       -1.9880848426  W2        989             0.0000000000
      2968       990  TIP3      OH2           -10.2210286291       -9.4830194476       -0.8560548426  W2        990             0.0000000000
      2969       990  TIP3      H1             -9.6073986291       -8.8502594476       -0.4828148426  W2        990             0.0000000000
      2970       990  TIP3      H2             -9.7089586291       -9.9555194476       -1.5123648426  W2        990             0.0000000000
      2971       991  TIP3      OH2            -8.8381886291       -1.7353294476        2.2662451574  W2        991             0.0000000000
      2972       991  TIP3      H1             -8.8434286291       -0.8559794476        1.8881751574  W2        991             0.0000000000
      2973       991  TIP3      H2             -9.6917786291       -1.8189194476        2.6912351574  W2        991             0.0000000000
      2974       992  TIP3      OH2           -12.7170986291       -2.0645394476       -6.9518248426  W2        992             0.0000000000
      2975       992  TIP3      H1            -12.9890086291       -1.8354394476       -7.8405348426  W2        992             0.0000000000
      2976       992  TIP3      H2            -12.6715286291       -1.2266594476       -6.4912948426  W2        992             0.0000000000
      2977       993  TIP3      OH2             0.9078713709       -0.4429494476       -0.2389748426  W2        993             0.0000000000
      2978       993  TIP3      H1             -0.0337586291       -0.3845594476       -0.0772848426  W2        993             0.0000000000
      2979       993  TIP3      H2              1.1844813709        0.4631005524       -0.3760048426  W2        993             0.0000000000
      2980       994  TIP3      OH2             1.2085713709      -12.1564194476        1.1784151574  W2        994             0.0000000000
      2981       994  TIP3      H1              0.4724913709      -11.5457094476        1.1405451574  W2        994             0.0000000000
      2982       994  TIP3      H2              1.8919713709      -11.7415194476        0.6520551574  W2        994             0.0000000000
      2983       995  TIP3      OH2            -5.7882886291      -14.0696894476       -1.3557848426  W2        995             0.0000000000
      2984       995  TIP3      H1             -5.9058686291      -15.0180894476       -1.4099548426  W2        995             0.0000000000
      2985       995  TIP3      H2             -6.6432786291      -13.7370794476       -1.0826748426  W2        995             0.0000000000
      2986       996  TIP3      OH2            -0.8400086291        1.3384005524       -3.6138148426  W2        996             0.0000000000
      2987       996  TIP3      H1             -0.4147786291        0.6311905524       -4.0988548426  W2        996             0.0000000000
      2988       996  TIP3      H2             -0.5230086291        2.1396705524       -4.0305948426  W2        996             0.0000000000
      2989       997  TIP3      OH2             0.3196413709       -0.7607494476       -5.1051548426  W2        997             0.0000000000
      2990       997  TIP3      H1              0.0621213709       -1.4507394476       -5.7165648426  W2        997             0.0000000000
      2991       997  TIP3      H2              0.3907213709       -1.2036294476       -4.2595648426  W2        997             0.0000000000
      2992       998  TIP3      OH2             2.0056613709       -2.1940794476        3.3721951574  W2        998             0.0000000000
      2993       998  TIP3      H1              2.1452913709       -2.7858294476        2.6328951574  W2        998             0.0000000000
      2994       998  TIP3      H2              2.1729413709       -1.3214894476        3.0160751574  W2        998             0.0000000000
      2995       999  TIP3      OH2            -3.5217986291       -5.2321294476       -6.8552048426  W2        999             0.0000000000
      2996       999  TIP3      H1             -4.2332486291       -4.6971594476       -7.2071548426  W2        999             0.0000000000
      2997       999  TIP3      H2             -2.8308386291       -5.1769194476       -7.5153148426  W2        999             0.0000000000
      2998      1000  TIP3      OH2            -3.4678786291       -6.7746994476       -9.8167048426  W2        1000            0.0000000000
      2999      1000  TIP3      H1             -2.7668886291       -6.7520094476       -9.1653048426  W2        1000            0.0000000000
      3000      1000  TIP3      H2             -3.1655886291       -7.4027294476      -10.4727748426  W2        1000            0.0000000000
      3001      1001  TIP3      OH2             3.8475913709       -5.8542794476        1.4382351574  W2        1001            0.0000000000
      3002      1001  TIP3      H1              3.1950013709       -5.1597194476        1.5273251574  W2        1001            0.0000000000
      3003      1001  TIP3      H2              4.3126213709       -5.6441894476        0.6283951574  W2        1001            0.0000000000
      3004      1002  TIP3      OH2            -0.1160286291       -5.0227994476       -5.9036148426  W2        1002            0.0000000000
      3005      1002  TIP3      H1             -0.8479286291       -4.7944294476       -5.3305548426  W2        1002            0.0000000000
      3006      1002  TIP3      H2              0.3311913709       -5.7365294476       -5.4488648426  W2        1002            0.0000000000
      3007      1003  TIP3      OH2            -0.2186786291       -6.8485394476        3.1640851574  W2        1003            0.0000000000
      3008      1003  TIP3      H1             -0.1387686291       -6.0850994476        3.7359351574  W2        1003            0.0000000000
      3009      1003  TIP3      H2             -0.8199086291       -6.5692994476        2.4735951574  W2        1003            0.0000000000
      3010      1004  TIP3      OH2            -8.4706586291       -4.3921794476       -4.0211148426  W2        1004            0.0000000000
      3011      1004  TIP3      H1             -8.8011386291       -4.7628394476       -4.8394148426  W2        1004            0.0000000000
      3012      1004  TIP3      H2             -7.8822486291       -5.0627794476       -3.6742848426  W2        1004            0.0000000000
      3013      1005  TIP3      OH2            -7.1039086291       -0.9641194476       -1.3398948426  W2        1005            0.0000000000
      3014      1005  TIP3      H1             -7.1987786291       -1.5428094476       -2.0964348426  W2        1005            0.0000000000
      3015      1005  TIP3      H2             -6.3745486291       -1.3355494476       -0.8436148426  W2        1005            0.0000000000
      3016      1006  TIP3      OH2            -8.1041086291       -5.6236194476       -0.3876148426  W2        1006            0.0000000000
      3017      1006  TIP3      H1             -7.5388586291       -5.5021994476       -1.1504948426  W2        1006            0.0000000000
      3018      1006  TIP3      H2             -7.7852186291       -4.9861194476        0.2512351574  W2        1006            0.0000000000
      3019      1007  TIP3      OH2            -1.7948886291       -0.1204294476        0.3464351574  W2        1007            0.0000000000
      3020      1007  TIP3      H1             -2.0352286291        0.5418805524        0.9943551574  W2        1007            0.0000000000
      3021      1007  TIP3      H2             -1.9930686291       -0.9549094476        0.7713951574  W2        1007            0.0000000000
      3022      1008  TIP3      OH2            -7.2240386291       -1.2243494476        4.3295751574  W2        1008            0.0000000000
      3023      1008  TIP3      H1             -7.5352886291       -0.4420294476        4.7848951574  W2        1008            0.0000000000
      3024      1008  TIP3      H2             -7.8740186291       -1.3774394476        3.6437751574  W2        1008            0.0000000000
      3025      1009  TIP3      OH2            -1.2450786291       -5.8605094476       -8.2184948426  W2        1009            0.0000000000
      3026      1009  TIP3      H1             -0.6655286291       -5.7104794476       -7.4716048426  W2        1009            0.0000000000
      3027      1009  TIP3      H2             -0.8310786291       -5.3897694476       -8.9418548426  W2        1009            0.0000000000
      3028      1010  TIP3      OH2           -10.3040486291       -5.0262394476        3.5581451574  W2        1010            0.0000000000
      3029      1010  TIP3      H1            -10.2337286291       -4.3755594476        4.2566451574  W2        1010            0.0000000000
      3030      1010  TIP3      H2            -11.1948286291       -4.9234894476        3.2232351574  W2        1010            0.0000000000
      3031      1011  TIP3      OH2            -3.5185886291        0.8763405524       -4.7831848426  W2        1011            0.0000000000
      3032      1011  TIP3      H1             -3.0448286291        1.1719705524       -4.0057648426  W2        1011            0.0000000000
      3033      1011  TIP3      H2             -4.0816586291        1.6145005524       -5.0162248426  W2        1011            0.0000000000
      3034      1012  TIP3      OH2            -8.9844486291        0.8471505524        5.0929551574  W2        1012            0.0000000000
      3035      1012  TIP3      H1             -8.9769186291        0.7111205524        4.1455051574  W2        1012            0.0000000000
      3036      1012  TIP3      H2             -9.9004086291        0.7299605524        5.3449551574  W2        1012            0.0000000000
      3037      1013  TIP3      OH2             2.4537613709      -14.1104694476       -8.4055248426  W2        1013            0.0000000000
      3038      1013  TIP3      H1              1.5538313709      -13.9715694476       -8.1104648426  W2        1013            0.0000000000
      3039      1013  TIP3      H2              2.7056013709      -13.2790094476       -8.8073548426  W2        1013            0.0000000000
      3040      1014  TIP3      OH2            -9.4803886291       -5.3227494476       -6.4318348426  W2        1014            0.0000000000
      3041      1014  TIP3      H1             -9.7722586291       -4.5545794476       -6.9227048426  W2        1014            0.0000000000
      3042      1014  TIP3      H2            -10.1548686291       -5.9821294476       -6.5946948426  W2        1014            0.0000000000
      3043      1015  TIP3      OH2             3.6429013709        0.2557705524      -10.0291348426  W2        1015            0.0000000000
      3044      1015  TIP3      H1              3.7162513709        1.1947905524       -9.8586048426  W2        1015            0.0000000000
      3045      1015  TIP3      H2              4.5484113709       -0.0493694476      -10.0854048426  W2        1015            0.0000000000
      3046      1016  TIP3      OH2           -13.3873786291       -2.9598294476        2.3831451574  W2        1016            0.0000000000
      3047      1016  TIP3      H1            -13.8885386291       -2.9878894476        1.5681151574  W2        1016            0.0000000000
      3048      1016  TIP3      H2            -13.3820086291       -3.8655094476        2.6928751574  W2        1016            0.0000000000
      3049      1017  TIP3      OH2           -13.6371086291       -0.1794494476       -0.7328348426  W2        1017            0.0000000000
      3050      1017  TIP3      H1            -12.6910486291       -0.3237494476       -0.7518848426  W2        1017            0.0000000000
      3051      1017  TIP3      H2            -13.7494786291        0.6048305524       -0.1957148426  W2        1017            0.0000000000
      3052      1018  TIP3      OH2             4.5607413709        0.4865205524        4.9495351574  W2        1018            0.0000000000
      3053      1018  TIP3      H1              4.5114213709       -0.4686694476        4.9122951574  W2        1018            0.0000000000
      3054      1018  TIP3      H2              3.7339713709        0.7540505524        5.3509151574  W2        1018            0.0000000000
      3055      1019  TIP3      OH2            -4.4608586291        0.0604405524        3.8256751574  W2        1019            0.0000000000
      3056      1019  TIP3      H1             -4.3733986291        0.8869005524        4.3005851574  W2        1019            0.0000000000
      3057      1019  TIP3      H2             -5.3243486291       -0.2691794476        4.0746051574  W2        1019            0.0000000000
      3058      1020  TIP3      OH2            -4.0462786291        3.8328105524       -6.3682648426  W2        1020            0.0000000000
      3059      1020  TIP3      H1             -4.1216786291        3.7115305524       -7.3147448426  W2        1020            0.0000000000
      3060      1020  TIP3      H2             -4.0134086291        4.7820805524       -6.2498048426  W2        1020            0.0000000000
      3061      1021  TIP3      OH2           -10.3928986291        2.6215105524       -4.5873648426  W2        1021            0.0000000000
      3062      1021  TIP3      H1            -10.2408586291        2.2735505524       -3.7087148426  W2        1021            0.0000000000
      3063      1021  TIP3      H2            -11.2438586291        2.2652405524       -4.8426448426  W2        1021            0.0000000000
      3064      1022  TIP3      OH2            -0.9446786291        2.9868305524       -9.3660248426  W2        1022            0.0000000000
      3065      1022  TIP3      H1             -0.5698386291        2.2424405524       -9.8367648426  W2        1022            0.0000000000
      3066      1022  TIP3      H2             -0.9403086291        2.7168905524       -8.4476948426  W2        1022            0.0000000000
      3067      1023  TIP3      OH2            -1.2758686291        2.9125405524       -6.6168048426  W2        1023            0.0000000000
      3068      1023  TIP3      H1             -2.2108886291        3.0127305524       -6.4381048426  W2        1023            0.0000000000
      3069      1023  TIP3      H2             -0.9956786291        2.2031405524       -6.0384848426  W2        1023            0.0000000000
      3070      1024  TIP3      OH2             1.7127213709       -8.0202294476        5.4297551574  W2        1024            0.0000000000
      3071      1024  TIP3      H1              1.3054013709       -7.5396694476        4.7090851574  W2        1024            0.0000000000
      3072      1024  TIP3      H2              1.7532913709       -8.9256294476        5.1218351574  W2        1024            0.0000000000
      3073      1025  TIP3      OH2           -11.1383286291       -1.6362894476        3.4264251574  W2        1025            0.0000000000
      3074      1025  TIP3      H1            -10.9221986291       -1.9977294476        4.2860051574  W2        1025            0.0000000000
      3075      1025  TIP3      H2            -11.9938586291       -2.0109094476        3.2167751574  W2        1025            0.0000000000
      3076      1026  TIP3      OH2            -8.5195286291      -13.1662394476       -0.5781548426  W2        1026            0.0000000000
      3077      1026  TIP3      H1             -9.3811586291      -13.2534194476       -0.9858648426  W2        1026            0.0000000000
      3078      1026  TIP3      H2             -8.5419586291      -12.3102294476       -0.1503948426  W2        1026            0.0000000000
      3079      1027  TIP3      OH2            -3.8567486291      -13.4441994476        2.7965451574  W2        1027            0.0000000000
      3080      1027  TIP3      H1             -3.4364386291      -13.8594894476        3.5496051574  W2        1027            0.0000000000
      3081      1027  TIP3      H2             -4.7897886291      -13.6228694476        2.9137451574  W2        1027            0.0000000000
      3082      1028  TIP3      OH2            -0.5302586291       -9.6886794476        3.6499951574  W2        1028            0.0000000000
      3083      1028  TIP3      H1             -1.0443086291       -9.8144594476        4.4475951574  W2        1028            0.0000000000
      3084      1028  TIP3      H2             -0.6857886291       -8.7763694476        3.4056151574  W2        1028            0.0000000000
      3085      1029  TIP3      OH2             0.2322313709       -4.8276794476      -10.5887048426  W2        1029            0.0000000000
      3086      1029  TIP3      H1              0.2743113709       -5.0502894476      -11.5187048426  W2        1029            0.0000000000
      3087      1029  TIP3      H2              1.0814413709       -4.4289694476      -10.3987148426  W2        1029            0.0000000000
      3088      1030  TIP3      OH2            -4.1950186291      -10.9518594476       -9.9183748426  W2        1030            0.0000000000
      3089      1030  TIP3      H1             -4.4485386291      -10.9326994476       -8.9955648426  W2        1030            0.0000000000
      3090      1030  TIP3      H2             -4.4518086291      -11.8233194476      -10.2197548426  W2        1030            0.0000000000
      3091      1031  TIP3      OH2            -8.4285186291       -8.2007894476        0.5168651574  W2        1031            0.0000000000
      3092      1031  TIP3      H1             -9.0703086291       -8.2410594476        1.2258751574  W2        1031            0.0000000000
      3093      1031  TIP3      H2             -8.3913186291       -7.2743194476        0.2791651574  W2        1031            0.0000000000
      3094      1032  TIP3      OH2            -8.4316086291       -7.9797794476       -4.5711348426  W2        1032            0.0000000000
      3095      1032  TIP3      H1             -9.3243186291       -8.3201694476       -4.6297548426  W2        1032            0.0000000000
      3096      1032  TIP3      H2             -7.9809486291       -8.3566894476       -5.3268148426  W2        1032            0.0000000000
      3097      1033  TIP3      OH2            -2.8960586291       -7.5637494476       -5.7540548426  W2        1033            0.0000000000
      3098      1033  TIP3      H1             -3.3050286291       -6.7488894476       -6.0455748426  W2        1033            0.0000000000
      3099      1033  TIP3      H2             -2.1754386291       -7.7037394476       -6.3683448426  W2        1033            0.0000000000
      3100      1034  TIP3      OH2            -3.7938986291       -7.3881094476        5.7340151574  W2        1034            0.0000000000
      3101      1034  TIP3      H1             -4.3565186291       -8.0929494476        6.0547951574  W2        1034            0.0000000000
      3102      1034  TIP3      H2             -2.9675586291       -7.5089194476        6.2017751574  W2        1034            0.0000000000
      3103      1035  TIP3      OH2            -1.8912886291       -8.1177094476       -2.9400848426  W2        1035            0.0000000000
      3104      1035  TIP3      H1             -2.0868386291       -7.5120294476       -3.6550248426  W2        1035            0.0000000000
      3105      1035  TIP3      H2             -1.7100286291       -8.9511894476       -3.3744548426  W2        1035            0.0000000000
      3106      1036  TIP3      OH2           -10.6784686291       -7.8804394476        2.3840651574  W2        1036            0.0000000000
      3107      1036  TIP3      H1            -10.7165286291       -7.4802794476        3.2527751574  W2        1036            0.0000000000
      3108      1036  TIP3      H2            -11.1693586291       -8.6971994476        2.4743551574  W2        1036            0.0000000000
      3109      1037  TIP3      OH2            -7.3127286291      -10.5062094476      -10.8173348426  W2        1037            0.0000000000
      3110      1037  TIP3      H1             -7.7436586291      -10.9511994476      -10.0875948426  W2        1037            0.0000000000
      3111      1037  TIP3      H2             -8.0308586291      -10.1345794476      -11.3295848426  W2        1037            0.0000000000
      3112      1038  TIP3      OH2           -14.0703886291      -10.7642594476       -3.7654648426  W2        1038            0.0000000000
      3113      1038  TIP3      H1            -13.4396186291      -10.7930494476       -3.0460748426  W2        1038            0.0000000000
      3114      1038  TIP3      H2            -13.6209586291      -11.1893894476       -4.4958748426  W2        1038            0.0000000000
      3115      1039  TIP3      OH2           -12.7961786291      -10.0180594476       -8.3414248426  W2        1039            0.0000000000
      3116      1039  TIP3      H1            -12.3220086291       -9.4270694476       -8.9263348426  W2        1039            0.0000000000
      3117      1039  TIP3      H2            -13.5135386291       -9.4877694476       -7.9944148426  W2        1039            0.0000000000
      3118      1040  TIP3      OH2            -2.6273686291       -6.4795794476        1.7311551574  W2        1040            0.0000000000
      3119      1040  TIP3      H1             -2.3038886291       -7.1106094476        1.0882051574  W2        1040            0.0000000000
      3120      1040  TIP3      H2             -3.0674386291       -7.0143594476        2.3918951574  W2        1040            0.0000000000
      3121      1041  TIP3      OH2            -5.8500786291      -10.5520294476       -3.4847248426  W2        1041            0.0000000000
      3122      1041  TIP3      H1             -6.7609686291      -10.4953494476       -3.1961248426  W2        1041            0.0000000000
      3123      1041  TIP3      H2             -5.3447886291      -10.6124794476       -2.6740048426  W2        1041            0.0000000000
      3124      1042  TIP3      OH2           -11.0217386291       -8.9233994476       -4.6579648426  W2        1042            0.0000000000
      3125      1042  TIP3      H1            -11.9109386291       -8.8238494476       -4.9980048426  W2        1042            0.0000000000
      3126      1042  TIP3      H2            -10.7252486291       -9.7650994476       -5.0041748426  W2        1042            0.0000000000
      3127      1043  TIP3      OH2            -7.3685586291       -8.9231394476       -7.0015048426  W2        1043            0.0000000000
      3128      1043  TIP3      H1             -6.4370086291       -8.7941394476       -6.8231948426  W2        1043            0.0000000000
      3129      1043  TIP3      H2             -7.5835286291       -8.2537094476       -7.6510348426  W2        1043            0.0000000000
      3130      1044  TIP3      OH2            -1.4448886291      -11.3173994476       -0.2205448426  W2        1044            0.0000000000
      3131      1044  TIP3      H1             -2.1217286291      -11.1860894476        0.4434251574  W2        1044            0.0000000000
      3132      1044  TIP3      H2             -1.9303986291      -11.4724494476       -1.0307748426  W2        1044            0.0000000000
      3133      1045  TIP3      OH2            -8.6945386291       -7.7289194476       -9.4348948426  W2        1045            0.0000000000
      3134      1045  TIP3      H1             -9.2370286291       -8.1085394476      -10.1261348426  W2        1045            0.0000000000
      3135      1045  TIP3      H2             -7.8610486291       -7.5344494476       -9.8634848426  W2        1045            0.0000000000
      3136      1046  TIP3      OH2             1.8426213709        4.3541405524        6.0562151574  W2        1046            0.0000000000
      3137      1046  TIP3      H1              2.0424913709        4.7783305524        5.2217451574  W2        1046            0.0000000000
      3138      1046  TIP3      H2              2.4979913709        4.6979605524        6.6632551574  W2        1046            0.0000000000
      3139      1047  TIP3      OH2           -10.5593986291       -3.1717294476        5.6642651574  W2        1047            0.0000000000
      3140      1047  TIP3      H1             -9.8271586291       -2.9171394476        6.2257151574  W2        1047            0.0000000000
      3141      1047  TIP3      H2            -11.3395286291       -2.9671894476        6.1798051574  W2        1047            0.0000000000
      3142      1048  TIP3      OH2            -4.5301086291       -7.7647294476       -1.5977648426  W2        1048            0.0000000000
      3143      1048  TIP3      H1             -3.9657686291       -8.3110694476       -2.1448048426  W2        1048            0.0000000000
      3144      1048  TIP3      H2             -4.6777686291       -8.2865394476       -0.8090048426  W2        1048            0.0000000000
      3145      1049  TIP3      OH2            -9.5281386291      -11.6281194476       -5.1792848426  W2        1049            0.0000000000
      3146      1049  TIP3      H1             -9.8451886291      -12.5305894476       -5.2147448426  W2        1049            0.0000000000
      3147      1049  TIP3      H2             -8.7467286291      -11.6263794476       -5.7321248426  W2        1049            0.0000000000
      3148      1050  TIP3      OH2            -5.9035186291       -9.3761194476        0.8162751574  W2        1050            0.0000000000
      3149      1050  TIP3      H1             -6.7389886291       -8.9221694476        0.9265151574  W2        1050            0.0000000000
      3150      1050  TIP3      H2             -5.3794586291       -9.1002694476        1.5682651574  W2        1050            0.0000000000
      3151      1051  TIP3      OH2            -5.3592586291       -3.1633494476       -7.4990848426  W2        1051            0.0000000000
      3152      1051  TIP3      H1             -6.1041586291       -3.6708194476       -7.8212948426  W2        1051            0.0000000000
      3153      1051  TIP3      H2             -5.4935386291       -3.1145494476       -6.5526048426  W2        1051            0.0000000000
      3154      1052  TIP3      OH2             1.7906313709       -4.0305294476        1.2876751574  W2        1052            0.0000000000
      3155      1052  TIP3      H1              2.4325113709       -3.5738994476        0.7438951574  W2        1052            0.0000000000
      3156      1052  TIP3      H2              0.9603213709       -3.9172894476        0.8250851574  W2        1052            0.0000000000
      3157      1053  TIP3      OH2            -1.4615786291      -10.3493594476       -9.2998248426  W2        1053            0.0000000000
      3158      1053  TIP3      H1             -2.4001586291      -10.2377994476       -9.4509448426  W2        1053            0.0000000000
      3159      1053  TIP3      H2             -1.1643686291       -9.4926694476       -8.9932548426  W2        1053            0.0000000000
      3160      1054  TIP3      OH2            -3.8400486291       -2.9790194476        3.7378251574  W2        1054            0.0000000000
      3161      1054  TIP3      H1             -4.1854386291       -3.3607794476        4.5447851574  W2        1054            0.0000000000
      3162      1054  TIP3      H2             -4.0400386291       -2.0456594476        3.8091151574  W2        1054            0.0000000000
      3163      1055  TIP3      OH2            -0.7432286291       -8.4820894476       -7.6390848426  W2        1055            0.0000000000
      3164      1055  TIP3      H1              0.1486713709       -8.6195894476       -7.3199648426  W2        1055            0.0000000000
      3165      1055  TIP3      H2             -0.6868686291       -7.6914794476       -8.1757348426  W2        1055            0.0000000000
      3166      1056  TIP3      OH2           -10.2344286291       -3.8683494476       -1.7292948426  W2        1056            0.0000000000
      3167      1056  TIP3      H1             -9.4897086291       -3.8707794476       -2.3306448426  W2        1056            0.0000000000
      3168      1056  TIP3      H2            -10.1567686291       -4.6919694476       -1.2477848426  W2        1056            0.0000000000
      3169      1057  TIP3      OH2            -3.2338486291       -1.7049194476       -8.4736248426  W2        1057            0.0000000000
      3170      1057  TIP3      H1             -3.5290086291       -0.8781294476       -8.0921448426  W2        1057            0.0000000000
      3171      1057  TIP3      H2             -3.9368486291       -2.3242294476       -8.2774848426  W2        1057            0.0000000000
      3172      1058  TIP3      OH2           -13.2264586291       -5.4076594476        3.5855551574  W2        1058            0.0000000000
      3173      1058  TIP3      H1            -13.0035986291       -5.8256994476        4.4173051574  W2        1058            0.0000000000
      3174      1058  TIP3      H2            -13.8284486291       -6.0201594476        3.1628351574  W2        1058            0.0000000000
      3175      1059  TIP3      OH2            -6.2099686291       -5.8906694476        5.7985251574  W2        1059            0.0000000000
      3176      1059  TIP3      H1             -6.5058886291       -6.0563694476        4.9034351574  W2        1059            0.0000000000
      3177      1059  TIP3      H2             -5.2784486291       -6.1106394476        5.7879151574  W2        1059            0.0000000000
      3178      1060  TIP3      OH2            -1.5896886291       -0.5174694476        3.6883251574  W2        1060            0.0000000000
      3179      1060  TIP3      H1             -2.4902586291       -0.3342094476        3.4207151574  W2        1060            0.0000000000
      3180      1060  TIP3      H2             -1.5555786291       -0.2585394476        4.6092051574  W2        1060            0.0000000000
      3181      1061  TIP3      OH2             4.1416413709       -8.2726794476       -7.9444148426  W2        1061            0.0000000000
      3182      1061  TIP3      H1              3.5872713709       -8.6688794476       -8.6166648426  W2        1061            0.0000000000
      3183      1061  TIP3      H2              4.2420013709       -7.3621594476       -8.2220848426  W2        1061            0.0000000000
      3184      1062  TIP3      OH2             4.1048413709       -2.4725094476        4.8927351574  W2        1062            0.0000000000
      3185      1062  TIP3      H1              3.2536913709       -2.2341294476        4.5253751574  W2        1062            0.0000000000
      3186      1062  TIP3      H2              4.6951813709       -2.4891894476        4.1394451574  W2        1062            0.0000000000
      3187      1063  TIP3      OH2             2.4368113709        0.5133605524       -7.4792048426  W2        1063            0.0000000000
      3188      1063  TIP3      H1              2.0639213709       -0.3122594476       -7.1701448426  W2        1063            0.0000000000
      3189      1063  TIP3      H2              2.7141613709        0.3303005524       -8.3768648426  W2        1063            0.0000000000
      3190      1064  TIP3      OH2            -0.4027986291       -4.6786894476       -0.4580148426  W2        1064            0.0000000000
      3191      1064  TIP3      H1             -1.3311086291       -4.9104994476       -0.4850848426  W2        1064            0.0000000000
      3192      1064  TIP3      H2              0.0483113709       -5.4557094476       -0.7881348426  W2        1064            0.0000000000
      3193      1065  TIP3      OH2            -7.8594886291       -0.3505294476       -4.3251448426  W2        1065            0.0000000000
      3194      1065  TIP3      H1             -7.3322686291        0.4229105524       -4.5252648426  W2        1065            0.0000000000
      3195      1065  TIP3      H2             -8.7396386291       -0.1256094476       -4.6267448426  W2        1065            0.0000000000
      3196      1066  TIP3      OH2           -12.1047186291       -5.4881194476       -9.7379048426  W2        1066            0.0000000000
      3197      1066  TIP3      H1            -11.4887286291       -4.8613994476       -9.3584248426  W2        1066            0.0000000000
      3198      1066  TIP3      H2            -12.9664586291       -5.1721394476       -9.4662548426  W2        1066            0.0000000000
      3199      1067  TIP3      OH2            -6.4322586291       -2.6875394476       -4.7487148426  W2        1067            0.0000000000
      3200      1067  TIP3      H1             -6.6732586291       -1.7620994476       -4.7071848426  W2        1067            0.0000000000
      3201      1067  TIP3      H2             -7.1728986291       -3.1464094476       -4.3523248426  W2        1067            0.0000000000
      3202      1068  TIP3      OH2            -5.9175986291        1.4618205524        1.5663951574  W2        1068            0.0000000000
      3203      1068  TIP3      H1             -5.5551286291        2.3163805524        1.3328351574  W2        1068            0.0000000000
      3204      1068  TIP3      H2             -5.3860786291        1.1699805524        2.3070251574  W2        1068            0.0000000000
      3205      1069  TIP3      OH2            -7.7491786291        2.3342205524       -5.2034948426  W2        1069            0.0000000000
      3206      1069  TIP3      H1             -8.6991286291        2.4399605524       -5.1521648426  W2        1069            0.0000000000
      3207      1069  TIP3      H2             -7.3973686291        3.1549605524       -4.8587448426  W2        1069            0.0000000000
      3208      1070  TIP3      OH2            -2.3735186291       -2.4391094476        1.2669551574  W2        1070            0.0000000000
      3209      1070  TIP3      H1             -2.7993886291       -2.6669394476        2.0933551574  W2        1070            0.0000000000
      3210      1070  TIP3      H2             -1.7929386291       -3.1779294476        1.0844851574  W2        1070            0.0000000000
      3211      1071  TIP3      OH2            -0.1706286291       -1.5100594476       -9.6591448426  W2        1071            0.0000000000
      3212      1071  TIP3      H1              0.1826813709       -1.8900794476       -8.8547948426  W2        1071            0.0000000000
      3213      1071  TIP3      H2             -1.1192786291       -1.6035794476       -9.5722148426  W2        1071            0.0000000000
      3214      1072  TIP3      OH2             0.2849013709        2.1128405524        3.7364351574  W2        1072            0.0000000000
      3215      1072  TIP3      H1             -0.3167786291        1.5571305524        3.2410651574  W2        1072            0.0000000000
      3216      1072  TIP3      H2              0.5662713709        2.7798205524        3.1101751574  W2        1072            0.0000000000
      3217      1073  TIP3      OH2             4.3328113709        2.9691905524       -9.4581248426  W2        1073            0.0000000000
      3218      1073  TIP3      H1              5.0766013709        3.5552405524       -9.5979648426  W2        1073            0.0000000000
      3219      1073  TIP3      H2              3.6386213709        3.5377705524       -9.1248848426  W2        1073            0.0000000000
      3220      1074  TIP3      OH2           -11.5925086291      -10.6543894476        3.1436951574  W2        1074            0.0000000000
      3221      1074  TIP3      H1            -12.4852786291      -10.3158494476        3.0760951574  W2        1074            0.0000000000
      3222      1074  TIP3      H2            -11.6912286291      -11.5097794476        3.5617751574  W2        1074            0.0000000000
      3223      1075  TIP3      OH2             0.6953013709       -2.8378594476       -7.4323548426  W2        1075            0.0000000000
      3224      1075  TIP3      H1              0.4180613709       -3.5659294476       -6.8762448426  W2        1075            0.0000000000
      3225      1075  TIP3      H2              1.6226013709       -2.7186594476       -7.2270948426  W2        1075            0.0000000000
      3226      1076  TIP3      OH2           -11.9413086291        1.1500505524        1.5786351574  W2        1076            0.0000000000
      3227      1076  TIP3      H1            -11.7242786291        0.2182905524        1.5476051574  W2        1076            0.0000000000
      3228      1076  TIP3      H2            -11.6949586291        1.4245505524        2.4619151574  W2        1076            0.0000000000
      3229      1077  TIP3      OH2            -6.0798486291       -0.3984494476      -11.2121448426  W2        1077            0.0000000000
      3230      1077  TIP3      H1             -5.8408686291       -1.1466394476      -11.7592548426  W2        1077            0.0000000000
      3231      1077  TIP3      H2             -6.3487186291       -0.7862794476      -10.3793648426  W2        1077            0.0000000000
      3232      1078  TIP3      OH2            -7.1427886291       -0.8280694476       -8.7558848426  W2        1078            0.0000000000
      3233      1078  TIP3      H1             -6.9959886291       -1.3480894476       -7.9657948426  W2        1078            0.0000000000
      3234      1078  TIP3      H2             -7.1456186291        0.0786905524       -8.4492948426  W2        1078            0.0000000000
      3235      1079  TIP3      OH2           -10.6896786291       -3.5757394476       -8.2453448426  W2        1079            0.0000000000
      3236      1079  TIP3      H1            -11.3757486291       -3.2234894476       -7.6783748426  W2        1079            0.0000000000
      3237      1079  TIP3      H2            -10.1668886291       -2.8127794476       -8.4919148426  W2        1079            0.0000000000
      3238      1080  TIP3      OH2            -2.8581686291      -10.9133594476        2.0335551574  W2        1080            0.0000000000
      3239      1080  TIP3      H1             -2.1593786291      -10.8394894476        2.6835251574  W2        1080            0.0000000000
      3240      1080  TIP3      H2             -3.2390286291      -11.7778594476        2.1878451574  W2        1080            0.0000000000
      3241      1081  TIP3      OH2            -2.0736786291      -11.2611894476       -6.8692148426  W2        1081            0.0000000000
      3242      1081  TIP3      H1             -1.8538486291      -10.7896494476       -7.6726748426  W2        1081            0.0000000000
      3243      1081  TIP3      H2             -1.5152786291      -10.8669294476       -6.1991548426  W2        1081            0.0000000000
      3244      1082  TIP3      OH2            -4.4050686291        0.8692905524       -8.0064648426  W2        1082            0.0000000000
      3245      1082  TIP3      H1             -5.2214586291        1.3662605524       -7.9540348426  W2        1082            0.0000000000
      3246      1082  TIP3      H2             -3.8754386291        1.3446405524       -8.6465848426  W2        1082            0.0000000000
      3247      1083  TIP3      OH2            -4.8736886291       -9.5333094476       -6.0343748426  W2        1083            0.0000000000
      3248      1083  TIP3      H1             -4.0614286291       -9.0289894476       -5.9882048426  W2        1083            0.0000000000
      3249      1083  TIP3      H2             -5.1183886291       -9.6783394476       -5.1204148426  W2        1083            0.0000000000
      3250      1084  TIP3      OH2            -4.3380486291       -8.5470394476        3.1502851574  W2        1084            0.0000000000
      3251      1084  TIP3      H1             -4.2190186291       -7.9734994476        3.9073251574  W2        1084            0.0000000000
      3252      1084  TIP3      H2             -3.6825886291       -9.2350994476        3.2650651574  W2        1084            0.0000000000
      3253      1085  TIP3      OH2            -3.9900186291      -12.4520094476       -5.0962648426  W2        1085            0.0000000000
      3254      1085  TIP3      H1             -4.3366686291      -11.8349494476       -4.4518348426  W2        1085            0.0000000000
      3255      1085  TIP3      H2             -3.3313286291      -11.9514394476       -5.5777148426  W2        1085            0.0000000000
      3256      1086  TIP3      OH2            -7.0667586291        1.9130105524       -8.0247748426  W2        1086            0.0000000000
      3257      1086  TIP3      H1             -6.9058886291        2.7127605524       -8.5255148426  W2        1086            0.0000000000
      3258      1086  TIP3      H2             -7.2639786291        2.2196105524       -7.1397148426  W2        1086            0.0000000000
      3259      1087  TIP3      OH2            -8.3323186291      -11.3890694476       -8.4090148426  W2        1087            0.0000000000
      3260      1087  TIP3      H1             -8.4158386291      -10.5007594476       -8.0623748426  W2        1087            0.0000000000
      3261      1087  TIP3      H2             -7.4422886291      -11.6543994476       -8.1773348426  W2        1087            0.0000000000
      3262      1088  TIP3      OH2             1.8665313709      -10.6400094476        3.9852551574  W2        1088            0.0000000000
      3263      1088  TIP3      H1              0.9501113709      -10.3778394476        3.8976251574  W2        1088            0.0000000000
      3264      1088  TIP3      H2              2.2020313709      -10.6431094476        3.0887851574  W2        1088            0.0000000000
      3265      1089  TIP3      OH2             0.4686313709       -6.8899094476       -1.9190148426  W2        1089            0.0000000000
      3266      1089  TIP3      H1             -0.3289286291       -7.3048894476       -2.2475148426  W2        1089            0.0000000000
      3267      1089  TIP3      H2              0.9137413709       -7.5805394476       -1.4279648426  W2        1089            0.0000000000
      3268      1090  TIP3      OH2           -10.0737886291       -0.9618494476       -9.3485648426  W2        1090            0.0000000000
      3269      1090  TIP3      H1             -9.4816386291       -0.2623694476       -9.0723248426  W2        1090            0.0000000000
      3270      1090  TIP3      H2             -9.6144886291       -1.3948994476      -10.0681048426  W2        1090            0.0000000000
      3271      1091  TIP3      OH2           -11.7578686291       -8.2975494476      -10.2326248426  W2        1091            0.0000000000
      3272      1091  TIP3      H1            -11.8026086291       -7.3582394476      -10.0539248426  W2        1091            0.0000000000
      3273      1091  TIP3      H2            -12.6455486291       -8.5330594476      -10.5024148426  W2        1091            0.0000000000
      3274      1092  TIP3      OH2             1.5550913709        2.3663405524       -0.2966648426  W2        1092            0.0000000000
      3275      1092  TIP3      H1              1.3995213709        3.0447805524       -0.9537348426  W2        1092            0.0000000000
      3276      1092  TIP3      H2              2.4877313709        2.4382705524       -0.0936048426  W2        1092            0.0000000000
      3277      1093  TIP3      OH2           -10.9496686291      -13.5158894476       -1.5595248426  W2        1093            0.0000000000
      3278      1093  TIP3      H1            -11.1786886291      -13.4566394476       -2.4870248426  W2        1093            0.0000000000
      3279      1093  TIP3      H2            -11.3923286291      -14.3073394476       -1.2531148426  W2        1093            0.0000000000
      3280      1094  TIP3      OH2           -12.0193386291        0.4248205524       -5.3989448426  W2        1094            0.0000000000
      3281      1094  TIP3      H1            -12.8514786291        0.8970905524       -5.3718048426  W2        1094            0.0000000000
      3282      1094  TIP3      H2            -11.4735086291        0.9345805524       -5.9976348426  W2        1094            0.0000000000
      3283      1095  TIP3      OH2           -12.7309686291        3.0371905524        5.9308551574  W2        1095            0.0000000000
      3284      1095  TIP3      H1            -12.1907486291        2.8205905524        6.6907751574  W2        1095            0.0000000000
      3285      1095  TIP3      H2            -13.2121686291        2.2317905524        5.7411051574  W2        1095            0.0000000000
      3286      1096  TIP3      OH2            -8.1336286291        1.9566305524        7.5512751574  W2        1096            0.0000000000
      3287      1096  TIP3      H1             -7.3659086291        1.4977105524        7.8921951574  W2        1096            0.0000000000
      3288      1096  TIP3      H2             -8.1550086291        1.7306105524        6.6213951574  W2        1096            0.0000000000
      3289      1097  TIP3      OH2            -4.0416686291        1.4646905524      -11.0735448426  W2        1097            0.0000000000
      3290      1097  TIP3      H1             -4.6855686291        0.8335505524      -10.7521748426  W2        1097            0.0000000000
      3291      1097  TIP3      H2             -3.2798386291        0.9334905524      -11.3051948426  W2        1097            0.0000000000
      3292      1098  TIP3      OH2            -1.5567586291        0.3367405524        6.2804251574  W2        1098            0.0000000000
      3293      1098  TIP3      H1             -1.9078086291       -0.5199594476        6.5234651574  W2        1098            0.0000000000
      3294      1098  TIP3      H2             -0.8304386291        0.4794105524        6.8873251574  W2        1098            0.0000000000
      3295      1099  TIP3      OH2             0.5626213709        1.2816805524      -10.8397448426  W2        1099            0.0000000000
      3296      1099  TIP3      H1              0.8456613709        0.4872005524      -10.3870548426  W2        1099            0.0000000000
      3297      1099  TIP3      H2              1.3024113709        1.5147805524      -11.4006348426  W2        1099            0.0000000000
      3298      1100  TIP3      OH2           -12.8240186291       -3.1523994476        6.8852851574  W2        1100            0.0000000000
      3299      1100  TIP3      H1            -12.6799686291       -4.0543294476        6.5989551574  W2        1100            0.0000000000
      3300      1100  TIP3      H2            -13.5962786291       -2.8661894476        6.3975151574  W2        1100            0.0000000000
      3301      1101  TIP3      OH2            -8.4826486291       -2.8088294476      -10.9822548426  W2        1101            0.0000000000
      3302      1101  TIP3      H1             -8.4182386291       -3.6028694476      -10.4516148426  W2        1101            0.0000000000
      3303      1101  TIP3      H2             -7.8297286291       -2.9275494476      -11.6720548426  W2        1101            0.0000000000
      3304      1102  TIP3      OH2            -6.1684086291       -3.1825894476        6.3179251574  W2        1102            0.0000000000
      3305      1102  TIP3      H1             -6.4970286291       -2.9117794476        5.4606651574  W2        1102            0.0000000000
      3306      1102  TIP3      H2             -6.0165886291       -4.1236094476        6.2304251574  W2        1102            0.0000000000
      3307      1103  TIP3      OH2            -3.1303086291       -1.7616594476      -11.2464548426  W2        1103            0.0000000000
      3308      1103  TIP3      H1             -3.3988986291       -1.5814494476      -10.3455648426  W2        1103            0.0000000000
      3309      1103  TIP3      H2             -3.3367486291       -2.6870394476      -11.3778748426  W2        1103            0.0000000000
      3310      1104  TIP3      OH2            -0.4338886291       -3.2668594476        3.7011551574  W2        1104            0.0000000000
      3311      1104  TIP3      H1              0.3115913709       -2.6784894476        3.5815551574  W2        1104            0.0000000000
      3312      1104  TIP3      H2             -1.1912086291       -2.6848894476        3.7644651574  W2        1104            0.0000000000
      3313      1105  TIP3      OH2           -11.9913686291       -5.9520694476        6.3052151574  W2        1105            0.0000000000
      3314      1105  TIP3      H1            -11.5832486291       -6.8094094476        6.1842751574  W2        1105            0.0000000000
      3315      1105  TIP3      H2            -12.2516086291       -5.9379394476        7.2262451574  W2        1105            0.0000000000
      3316      1106  TIP3      OH2            -7.3332686291       -4.8362094476       -8.6764548426  W2        1106            0.0000000000
      3317      1106  TIP3      H1             -7.7930686291       -5.3203794476       -7.9906048426  W2        1106            0.0000000000
      3318      1106  TIP3      H2             -7.0783986291       -5.5046694476       -9.3124048426  W2        1106            0.0000000000
      3319      1107  TIP3      OH2            -8.0443386291       -6.9434994476        3.6795051574  W2        1107            0.0000000000
      3320      1107  TIP3      H1             -8.6627286291       -6.2688394476        3.9599751574  W2        1107            0.0000000000
      3321      1107  TIP3      H2             -7.7002186291       -6.6221094476        2.8461251574  W2        1107            0.0000000000
      3322      1108  TIP3      OH2            -6.2622286291       -6.5930294476      -10.4141348426  W2        1108            0.0000000000
      3323      1108  TIP3      H1             -6.4427286291       -6.7479094476      -11.3413048426  W2        1108            0.0000000000
      3324      1108  TIP3      H2             -5.3121786291       -6.4851594476      -10.3693448426  W2        1108            0.0000000000
      3325      1109  TIP3      OH2            -3.0245186291       -4.4719694476        6.9569851574  W2        1109            0.0000000000
      3326      1109  TIP3      H1             -2.0713986291       -4.3880594476        6.9295851574  W2        1109            0.0000000000
      3327      1109  TIP3      H2             -3.1850586291       -5.1837894476        7.5764751574  W2        1109            0.0000000000
      3328      1110  TIP3      OH2             3.1276013709       -4.2386094476      -10.9683248426  W2        1110            0.0000000000
      3329      1110  TIP3      H1              2.8540813709       -4.6630594476      -11.7814948426  W2        1110            0.0000000000
      3330      1110  TIP3      H2              3.1670113709       -3.3071594476      -11.1852848426  W2        1110            0.0000000000
      3331      1111  TIP3      OH2            -7.7049686291       -9.5884194476        4.7618151574  W2        1111            0.0000000000
      3332      1111  TIP3      H1             -7.5548786291      -10.3172894476        4.1597851574  W2        1111            0.0000000000
      3333      1111  TIP3      H2             -7.7027286291       -8.8112494476        4.2030351574  W2        1111            0.0000000000
      3334      1112  TIP3      OH2            -7.2923986291      -11.2188394476        2.2545551574  W2        1112            0.0000000000
      3335      1112  TIP3      H1             -6.7566486291      -10.7671694476        1.6024851574  W2        1112            0.0000000000
      3336      1112  TIP3      H2             -8.1444386291      -11.3268594476        1.8319651574  W2        1112            0.0000000000
      3337      1113  TIP3      OH2            -5.7105586291       -5.7792194476        2.4940751574  W2        1113            0.0000000000
      3338      1113  TIP3      H1             -4.9600786291       -5.9354694476        1.9208551574  W2        1113            0.0000000000
      3339      1113  TIP3      H2             -6.0497286291       -4.9275594476        2.2186251574  W2        1113            0.0000000000
      3340      1114  TIP3      OH2            -1.2949386291       -7.9640394476        7.5226051574  W2        1114            0.0000000000
      3341      1114  TIP3      H1             -1.1028086291       -8.8950994476        7.4110551574  W2        1114            0.0000000000
      3342      1114  TIP3      H2             -0.4373086291       -7.5390894476        7.5121451574  W2        1114            0.0000000000
      3343      1115  TIP3      OH2             0.0217813709       -5.1755194476        5.5998751574  W2        1115            0.0000000000
      3344      1115  TIP3      H1             -0.2597186291       -4.4660594476        5.0222551574  W2        1115            0.0000000000
      3345      1115  TIP3      H2              0.9642113709       -5.2482194476        5.4489951574  W2        1115            0.0000000000
      3346      1116  TIP3      OH2            -9.2263386291       -8.3900694476        6.6733751574  W2        1116            0.0000000000
      3347      1116  TIP3      H1             -9.9934386291       -8.9225894476        6.4631351574  W2        1116            0.0000000000
      3348      1116  TIP3      H2             -8.5474386291       -8.7000294476        6.0740051574  W2        1116            0.0000000000
      3349      1117  TIP3      OH2            -6.4868486291      -13.7622694476        2.6859151574  W2        1117            0.0000000000
      3350      1117  TIP3      H1             -6.5848886291      -12.8159494476        2.5805351574  W2        1117            0.0000000000
      3351      1117  TIP3      H2             -7.2292286291      -14.1348894476        2.2102651574  W2        1117            0.0000000000
      3352      1118  TIP3      OH2            -5.2227986291       -9.4407294476        6.2497551574  W2        1118            0.0000000000
      3353      1118  TIP3      H1             -5.4582586291       -9.6600594476        7.1512451574  W2        1118            0.0000000000
      3354      1118  TIP3      H2             -6.0061086291       -9.6476094476        5.7400051574  W2        1118            0.0000000000
      3355      1119  TIP3      OH2            -2.5071386291      -10.3133794476        5.3251051574  W2        1119            0.0000000000
      3356      1119  TIP3      H1             -3.4545986291      -10.2814094476        5.4574351574  W2        1119            0.0000000000
      3357      1119  TIP3      H2             -2.1944686291      -10.9386694476        5.9789251574  W2        1119            0.0000000000
      3358      1120  TIP3      OH2            -0.8729886291      -11.6792694476        7.3302951574  W2        1120            0.0000000000
      3359      1120  TIP3      H1             -0.9698086291      -12.6315394476        7.3244851574  W2        1120            0.0000000000
      3360      1120  TIP3      H2             -1.1946786291      -11.4105894476        8.1908451574  W2        1120            0.0000000000
      3361      1121  TIP3      OH2           -11.0460586291      -10.4696894476        6.3778451574  W2        1121            0.0000000000
      3362      1121  TIP3      H1            -10.8343186291      -11.1760794476        5.7675951574  W2        1121            0.0000000000
      3363      1121  TIP3      H2            -11.1573086291      -10.9070894476        7.2219651574  W2        1121            0.0000000000
      3364      1122  TIP3      OH2            -6.2650386291      -14.4685294476        5.3571951574  W2        1122            0.0000000000
      3365      1122  TIP3      H1             -5.5531986291      -15.1083094476        5.3431051574  W2        1122            0.0000000000
      3366      1122  TIP3      H2             -6.3659986291      -14.2016994476        4.4435051574  W2        1122            0.0000000000
      3367      1123  TIP3      OH2            -5.9112886291      -12.7856894476        7.4108251574  W2        1123            0.0000000000
      3368      1123  TIP3      H1             -6.0430686291      -13.2613094476        6.5906751574  W2        1123            0.0000000000
      3369      1123  TIP3      H2             -6.5105486291      -12.0413294476        7.3555351574  W2        1123            0.0000000000
      3370      1124  TIP3      OH2            -6.3650586291        4.0973405524       -9.4127748426  W2        1124            0.0000000000
      3371      1124  TIP3      H1             -5.4319886291        4.2552105524       -9.2689348426  W2        1124            0.0000000000
      3372      1124  TIP3      H2             -6.6291786291        4.7726405524      -10.0376248426  W2        1124            0.0000000000
      3373      1125  TIP3      OH2           -12.7965686291       -1.2662794476       -9.9299648426  W2        1125            0.0000000000
      3374      1125  TIP3      H1            -11.8826486291       -1.1873894476       -9.6565748426  W2        1125            0.0000000000
      3375      1125  TIP3      H2            -12.7892586291       -1.9533194476      -10.5964048426  W2        1125            0.0000000000
      3376      1126  TIP3      OH2           -14.1475086291        4.1265705524       -4.8525748426  W2        1126            0.0000000000
      3377      1126  TIP3      H1            -14.7947986291        3.6647405524       -5.3854548426  W2        1126            0.0000000000
      3378      1126  TIP3      H2            -13.7930486291        3.4549005524       -4.2699548426  W2        1126            0.0000000000
      3379      1127  TIP3      OH2           -13.2775886291        2.2072705524       -3.0479548426  W2        1127            0.0000000000
      3380      1127  TIP3      H1            -13.6119086291        1.3270005524       -2.8759348426  W2        1127            0.0000000000
      3381      1127  TIP3      H2            -13.0553486291        2.5527705524       -2.1833948426  W2        1127            0.0000000000
      3382      1128  TIP3      OH2             4.2708913709        3.0169105524       -0.0674748426  W2        1128            0.0000000000
      3383      1128  TIP3      H1              4.2495613709        3.2017505524        0.8714651574  W2        1128            0.0000000000
      3384      1128  TIP3      H2              4.9615113709        3.5853105524       -0.4083348426  W2        1128            0.0000000000
      3385      1129  TIP3      OH2             3.8341813709        2.5840205524        2.8544351574  W2        1129            0.0000000000
      3386      1129  TIP3      H1              3.3470513709        1.8484305524        2.4831751574  W2        1129            0.0000000000
      3387      1129  TIP3      H2              4.3834513709        2.1904105524        3.5323751574  W2        1129            0.0000000000
      3388      1130  TIP3      OH2             2.2849113709       -1.6261694476        7.4924651574  W2        1130            0.0000000000
      3389      1130  TIP3      H1              1.4190213709       -1.7311994476        7.8866951574  W2        1130            0.0000000000
      3390      1130  TIP3      H2              2.6615013709       -0.8678394476        7.9389351574  W2        1130            0.0000000000
      3391      1131  TIP3      OH2             3.5858813709       -3.3697994476       -6.9932848426  W2        1131            0.0000000000
      3392      1131  TIP3      H1              4.4360213709       -2.9487094476       -6.8661248426  W2        1131            0.0000000000
      3393      1131  TIP3      H2              3.5913913709       -4.1097894476       -6.3861448426  W2        1131            0.0000000000
      3394      1132  TIP3      OH2             3.9804413709       -5.3160594476       -5.1697148426  W2        1132            0.0000000000
      3395      1132  TIP3      H1              3.2539013709       -5.7957994476       -4.7719548426  W2        1132            0.0000000000
      3396      1132  TIP3      H2              4.5617713709       -5.1105894476       -4.4375548426  W2        1132            0.0000000000
      3397      1133  TIP3      OH2             3.7395613709       -2.5313094476       -0.2219548426  W2        1133            0.0000000000
      3398      1133  TIP3      H1              4.5729813709       -2.9093094476       -0.5025948426  W2        1133            0.0000000000
      3399      1133  TIP3      H2              3.8515913709       -1.5881894476       -0.3410448426  W2        1133            0.0000000000
      3400      1134  TIP3      OH2             2.2257913709        0.3464405524        2.0848851574  W2        1134            0.0000000000
      3401      1134  TIP3      H1              1.5783213709        0.6715905524        2.7104051574  W2        1134            0.0000000000
      3402      1134  TIP3      H2              1.7081913709       -0.0937894476        1.4107151574  W2        1134            0.0000000000
      3403      1135  TIP3      OH2             4.2487513709       -5.4152094476       -8.7785848426  W2        1135            0.0000000000
      3404      1135  TIP3      H1              3.7268613709       -5.0587994476       -9.4974948426  W2        1135            0.0000000000
      3405      1135  TIP3      H2              4.2156713709       -4.7404294476       -8.1004948426  W2        1135            0.0000000000
      3406      1136  TIP3      OH2             2.5976513709       -8.1756494476      -10.2278748426  W2        1136            0.0000000000
      3407      1136  TIP3      H1              2.6940913709       -7.5089494476      -10.9079048426  W2        1136            0.0000000000
      3408      1136  TIP3      H2              2.4576113709       -8.9910194476      -10.7093248426  W2        1136            0.0000000000
      3409      1137  TIP3      OH2             1.7671213709       -6.7954094476       -4.6068448426  W2        1137            0.0000000000
      3410      1137  TIP3      H1              1.6170013709       -7.7405494476       -4.6270648426  W2        1137            0.0000000000
      3411      1137  TIP3      H2              1.4135713709       -6.5142694476       -3.7629348426  W2        1137            0.0000000000
      3412      1138  TIP3      OH2           -13.1976386291       -4.7171894476       -0.5964648426  W2        1138            0.0000000000
      3413      1138  TIP3      H1            -13.0133486291       -4.7990194476       -1.5321748426  W2        1138            0.0000000000
      3414      1138  TIP3      H2            -12.3483486291       -4.8414894476       -0.1728248426  W2        1138            0.0000000000
      3415      1139  TIP3      OH2             2.6234113709       -4.8250794476        5.0319851574  W2        1139            0.0000000000
      3416      1139  TIP3      H1              3.2061413709       -5.5598494476        5.2237051574  W2        1139            0.0000000000
      3417      1139  TIP3      H2              3.1873413709       -4.0530494476        5.0785651574  W2        1139            0.0000000000
      3418      1140  TIP3      OH2             4.1201213709       -6.9224994476        5.7165251574  W2        1140            0.0000000000
      3419      1140  TIP3      H1              3.2567913709       -7.3012894476        5.5509951574  W2        1140            0.0000000000
      3420      1140  TIP3      H2              4.7244913709       -7.6610194476        5.6421051574  W2        1140            0.0000000000
      3421      1141  TIP3      OH2             1.8450313709      -10.7676694476      -11.1103248426  W2        1141            0.0000000000
      3422      1141  TIP3      H1              2.4556113709      -11.1389894476      -10.4735048426  W2        1141            0.0000000000
      3423      1141  TIP3      H2              1.0081813709      -11.1889794476      -10.9143248426  W2        1141            0.0000000000
      3424      1142  TIP3      OH2             1.4776013709       -9.2128294476       -6.1443348426  W2        1142            0.0000000000
      3425      1142  TIP3      H1              1.7573113709      -10.1197894476       -6.0201648426  W2        1142            0.0000000000
      3426      1142  TIP3      H2              2.2367713709       -8.7786794476       -6.5334148426  W2        1142            0.0000000000
      3427      1143  TIP3      OH2             2.0894313709       -8.6310894476       -0.7084448426  W2        1143            0.0000000000
      3428      1143  TIP3      H1              3.0222313709       -8.4190994476       -0.7428448426  W2        1143            0.0000000000
      3429      1143  TIP3      H2              1.8541813709       -8.5298794476        0.2138551574  W2        1143            0.0000000000
      3430      1144  TIP3      OH2             2.1186213709       -7.8945594476        2.0674951574  W2        1144            0.0000000000
      3431      1144  TIP3      H1              1.2757513709       -7.6265194476        2.4334751574  W2        1144            0.0000000000
      3432      1144  TIP3      H2              2.5610513709       -7.0723694476        1.8566051574  W2        1144            0.0000000000
      3433      1145  TIP3      OH2           -13.6001586291       -9.4466894476        5.5444151574  W2        1145            0.0000000000
      3434      1145  TIP3      H1            -12.6806686291       -9.5688594476        5.7807251574  W2        1145            0.0000000000
      3435      1145  TIP3      H2            -14.0497086291      -10.1967194476        5.9337651574  W2        1145            0.0000000000
      3436      1146  TIP3      OH2             4.4017813709      -13.9145394476        7.4209951574  W2        1146            0.0000000000
      3437      1146  TIP3      H1              4.7514813709      -14.5681894476        6.8154651574  W2        1146            0.0000000000
      3438      1146  TIP3      H2              4.5487313709      -13.0771294476        6.9812551574  W2        1146            0.0000000000
      3439      1147  TIP3      OH2             2.0910813709      -11.9498994476       -6.0961348426  W2        1147            0.0000000000
      3440      1147  TIP3      H1              2.2735813709      -12.3987494476       -5.2706348426  W2        1147            0.0000000000
      3441      1147  TIP3      H2              1.4913713709      -12.5344594476       -6.5596748426  W2        1147            0.0000000000
      3442      1148  TIP3      OH2           -12.3789086291      -11.1345294476       -1.5642948426  W2        1148            0.0000000000
      3443      1148  TIP3      H1            -11.9337486291      -11.9262794476       -1.2623248426  W2        1148            0.0000000000
      3444      1148  TIP3      H2            -11.9126086291      -10.4180094476       -1.1337348426  W2        1148            0.0000000000
      3445      1149  TIP3      OH2           -14.0748786291       -8.1352294476       -0.4952748426  W2        1149            0.0000000000
      3446      1149  TIP3      H1            -13.5828986291       -8.3561794476       -1.2860748426  W2        1149            0.0000000000
      3447      1149  TIP3      H2            -13.7127886291       -7.2948894476       -0.2143248426  W2        1149            0.0000000000
      3448      1150  TIP3      OH2             3.9215013709      -11.8050794476        5.7701251574  W2        1150            0.0000000000
      3449      1150  TIP3      H1              3.0040713709      -11.5343694476        5.7344751574  W2        1150            0.0000000000
      3450      1150  TIP3      H2              4.0444413709      -12.3402394476        4.9860951574  W2        1150            0.0000000000
      3451      1151  TIP3      OH2             3.9577013709      -11.8820894476       -9.5681048426  W2        1151            0.0000000000
      3452      1151  TIP3      H1              4.3699613709      -12.6035194476      -10.0433048426  W2        1151            0.0000000000
      3453      1151  TIP3      H2              4.6393513709      -11.2126294476       -9.5096748426  W2        1151            0.0000000000
      3454      1152  TIP3      OH2           -13.7612286291      -11.8773194476       -6.4410348426  W2        1152            0.0000000000
      3455      1152  TIP3      H1            -14.6863886291      -11.6686594476       -6.5704848426  W2        1152            0.0000000000
      3456      1152  TIP3      H2            -13.3072386291      -11.3932394476       -7.1308048426  W2        1152            0.0000000000
      3457      1153  TIP3      OH2             1.0094913709        3.1068505524       -4.4952948426  W2        1153            0.0000000000
      3458      1153  TIP3      H1              1.6617813709        2.7590605524       -5.1033848426  W2        1153            0.0000000000
      3459      1153  TIP3      H2              1.5198713709        3.5951705524       -3.8493248426  W2        1153            0.0000000000
      3460      1154  TIP3      OH2           -13.7976886291      -13.1394194476        1.9032151574  W2        1154            0.0000000000
      3461      1154  TIP3      H1            -14.4626386291      -13.3853894476        2.5463051574  W2        1154            0.0000000000
      3462      1154  TIP3      H2            -14.2405586291      -12.5173794476        1.3260151574  W2        1154            0.0000000000
      3463      1155  TIP3      OH2           -11.6057586291        0.0359905524        6.0477951574  W2        1155            0.0000000000
      3464      1155  TIP3      H1            -12.4265086291        0.2106405524        5.5872651574  W2        1155            0.0000000000
      3465      1155  TIP3      H2            -11.8579786291       -0.0375394476        6.9682351574  W2        1155            0.0000000000
      3466      1156  TIP3      OH2            -8.6514686291        1.0101105524        2.3061951574  W2        1156            0.0000000000
      3467      1156  TIP3      H1             -9.0763586291        1.8199605524        2.0236551574  W2        1156            0.0000000000
      3468      1156  TIP3      H2             -7.7471886291        1.0955205524        2.0041751574  W2        1156            0.0000000000
      3469      1157  TIP3      OH2            -4.3403286291        2.4091105524        5.2655651574  W2        1157            0.0000000000
      3470      1157  TIP3      H1             -4.1555786291        2.0757205524        6.1435951574  W2        1157            0.0000000000
      3471      1157  TIP3      H2             -3.4938786291        2.7189705524        4.9434851574  W2        1157            0.0000000000
      3472      1158  TIP3      OH2            -1.9952886291        3.6950005524        4.5097051574  W2        1158            0.0000000000
      3473      1158  TIP3      H1             -1.3183986291        3.0622305524        4.2696251574  W2        1158            0.0000000000
      3474      1158  TIP3      H2             -1.6734086291        4.0960505524        5.3170351574  W2        1158            0.0000000000
      3475      1159  TIP3      OH2             2.9220913709      -13.7154494476        3.5892051574  W2        1159            0.0000000000
      3476      1159  TIP3      H1              2.1094413709      -13.3904194476        3.2016751574  W2        1159            0.0000000000
      3477      1159  TIP3      H2              3.1549413709      -14.4755994476        3.0561151574  W2        1159            0.0000000000
      3478      1160  TIP3      OH2           -11.2497986291        4.2665005524        2.3537251574  W2        1160            0.0000000000
      3479      1160  TIP3      H1            -11.9701586291        4.7066005524        1.9024951574  W2        1160            0.0000000000
      3480      1160  TIP3      H2            -11.6153986291        4.0159705524        3.2021251574  W2        1160            0.0000000000
      3481      1161  TIP3      OH2            -8.7825386291        3.8668905524        1.3834451574  W2        1161            0.0000000000
      3482      1161  TIP3      H1             -9.6473186291        3.9387405524        1.7874551574  W2        1161            0.0000000000
      3483      1161  TIP3      H2             -8.8376386291        4.4136205524        0.5996951574  W2        1161            0.0000000000
      3484      1162  TIP3      OH2            -4.0719786291        3.7547805524        0.5590451574  W2        1162            0.0000000000
      3485      1162  TIP3      H1             -4.5285786291        4.2837505524       -0.0951148426  W2        1162            0.0000000000
      3486      1162  TIP3      H2             -3.9091786291        4.3579205524        1.2842751574  W2        1162            0.0000000000
      3487      1163  TIP3      OH2            -1.7443486291        2.6327405524        1.5040751574  W2        1163            0.0000000000
      3488      1163  TIP3      H1             -2.6489786291        2.7977605524        1.2382851574  W2        1163            0.0000000000
      3489      1163  TIP3      H2             -1.3154886291        3.4859605524        1.4384151574  W2        1163            0.0000000000
      3490      1164  TIP3      OH2             0.8598413709        4.2026505524        1.7988551574  W2        1164            0.0000000000
      3491      1164  TIP3      H1              0.6780413709        5.1185405524        1.5883451574  W2        1164            0.0000000000
      3492      1164  TIP3      H2              1.0366213709        3.7923605524        0.9523151574  W2        1164            0.0000000000
      3493      1165  TIP3      OH2           -11.8349886291        2.8897505524       -0.7360948426  W2        1165            0.0000000000
      3494      1165  TIP3      H1            -11.8533886291        2.4642605524        0.1211351574  W2        1165            0.0000000000
      3495      1165  TIP3      H2            -11.0301986291        2.5712505524       -1.1448748426  W2        1165            0.0000000000
      3496      1166  TIP3      OH2            -9.6936786291        1.5996205524       -2.0811048426  W2        1166            0.0000000000
      3497      1166  TIP3      H1             -9.9126086291        0.6833605524       -1.9115048426  W2        1166            0.0000000000
      3498      1166  TIP3      H2             -8.8694586291        1.7396605524       -1.6149648426  W2        1166            0.0000000000
      3499      1167  TIP3      OH2            -7.1564286291        2.0695505524       -1.2323048426  W2        1167            0.0000000000
      3500      1167  TIP3      H1             -6.9438586291        1.1814505524       -1.5192148426  W2        1167            0.0000000000
      3501      1167  TIP3      H2             -7.0919186291        2.0353205524       -0.2779048426  W2        1167            0.0000000000
      3502      1168  TIP3      OH2            -3.6480586291      -12.2663894476       -2.0879748426  W2        1168            0.0000000000
      3503      1168  TIP3      H1             -4.3223786291      -12.8958294476       -1.8323948426  W2        1168            0.0000000000
      3504      1168  TIP3      H2             -3.0841386291      -12.7504994476       -2.6911848426  W2        1168            0.0000000000
      3505      1169  TIP3      OH2             1.4946613709      -14.1589894476       -1.9752648426  W2        1169            0.0000000000
      3506      1169  TIP3      H1              2.0984213709      -13.6114494476       -2.4771648426  W2        1169            0.0000000000
      3507      1169  TIP3      H2              0.6248613709      -13.8399494476       -2.2158548426  W2        1169            0.0000000000
      3508      1170  TIP3      OH2             3.2217013709      -13.0201194476       -3.6421748426  W2        1170            0.0000000000
      3509      1170  TIP3      H1              3.8334513709      -13.5345494476       -4.1688148426  W2        1170            0.0000000000
      3510      1170  TIP3      H2              3.6040413709      -12.1429094476       -3.6187348426  W2        1170            0.0000000000
      3511      1171  TIP3      OH2           -11.3213086291      -13.6323594476       -4.2659848426  W2        1171            0.0000000000
      3512      1171  TIP3      H1            -12.0983286291      -13.8668694476       -4.7733948426  W2        1171            0.0000000000
      3513      1171  TIP3      H2            -10.7909486291      -14.4291494476       -4.2571848426  W2        1171            0.0000000000
      3514      1172  TIP3      OH2           -12.4849686291      -13.8345494476       -8.4623748426  W2        1172            0.0000000000
      3515      1172  TIP3      H1            -12.0458986291      -13.2234994476       -9.0540248426  W2        1172            0.0000000000
      3516      1172  TIP3      H2            -13.1187286291      -13.2961394476       -7.9883748426  W2        1172            0.0000000000
      3517      1173  TIP3      OH2            -6.7420486291      -13.7056494476       -4.4526748426  W2        1173            0.0000000000
      3518      1173  TIP3      H1             -5.8677086291      -13.3172194476       -4.4822448426  W2        1173            0.0000000000
      3519      1173  TIP3      H2             -6.8779686291      -13.9208694476       -3.5299548426  W2        1173            0.0000000000
      3520      1174  TIP3      OH2            -1.1852086291      -13.6756694476       -2.8035048426  W2        1174            0.0000000000
      3521      1174  TIP3      H1             -1.1090486291      -13.5805094476       -3.7529048426  W2        1174            0.0000000000
      3522      1174  TIP3      H2             -1.4602886291      -14.5833794476       -2.6745948426  W2        1174            0.0000000000
      3523      1175  TIP3      OH2             0.1680513709      -13.6498894476       -7.1110048426  W2        1175            0.0000000000
      3524      1175  TIP3      H1             -0.5348386291      -13.0349694476       -7.3208648426  W2        1175            0.0000000000
      3525      1175  TIP3      H2             -0.2768086291      -14.4872194476       -6.9799148426  W2        1175            0.0000000000
      3526      1176  TIP3      OH2           -12.5840186291        2.1136705524       -7.5648648426  W2        1176            0.0000000000
      3527      1176  TIP3      H1            -13.2690286291        2.0755605524       -8.2323548426  W2        1176            0.0000000000
      3528      1176  TIP3      H2            -12.5802986291        3.0264305524       -7.2766548426  W2        1176            0.0000000000
      3529      1177  TIP3      OH2           -10.6240586291      -11.9183994476      -10.0199648426  W2        1177            0.0000000000
      3530      1177  TIP3      H1            -10.1327186291      -12.5481594476      -10.5474148426  W2        1177            0.0000000000
      3531      1177  TIP3      H2            -10.0004286291      -11.6224594476       -9.3568448426  W2        1177            0.0000000000
      3532      1178  TIP3      OH2            -5.5980486291      -11.6252494476       -7.5629148426  W2        1178            0.0000000000
      3533      1178  TIP3      H1             -5.4199186291      -12.2719294476       -6.8800548426  W2        1178            0.0000000000
      3534      1178  TIP3      H2             -5.6514286291      -10.7914794476       -7.0958048426  W2        1178            0.0000000000
      3535      1179  TIP3      OH2            -3.7196686291        3.3231605524       -9.1672448426  W2        1179            0.0000000000
      3536      1179  TIP3      H1             -2.8536486291        3.6899005524       -9.3454248426  W2        1179            0.0000000000
      3537      1179  TIP3      H2             -3.9663886291        2.8839605524       -9.9811648426  W2        1179            0.0000000000
      3538      1180  TIP3      OH2             2.9892913709        2.8861905524       -6.4881348426  W2        1180            0.0000000000
      3539      1180  TIP3      H1              2.7950013709        2.1384005524       -7.0531748426  W2        1180            0.0000000000
      3540      1180  TIP3      H2              2.9503013709        3.6442005524       -7.0713448426  W2        1180            0.0000000000
      3541      1181  TIP3      OH2           -11.3635086291      -13.1181694476        5.2516351574  W2        1181            0.0000000000
      3542      1181  TIP3      H1            -11.7296886291      -13.8839094476        5.6941051574  W2        1181            0.0000000000
      3543      1181  TIP3      H2            -10.4506586291      -13.0891494476        5.5381451574  W2        1181            0.0000000000
      3544      1182  TIP3      OH2            -9.3904286291      -13.7677294476        6.7873451574  W2        1182            0.0000000000
      3545      1182  TIP3      H1             -8.4920686291      -14.0417094476        6.6026851574  W2        1182            0.0000000000
      3546      1182  TIP3      H2             -9.7771186291      -14.5101294476        7.2516051574  W2        1182            0.0000000000
      3547      1183  TIP3      OH2           -10.7658986291        3.0337505524      -10.5396548426  W2        1183            0.0000000000
      3548      1183  TIP3      H1            -11.0334386291        3.3200405524       -9.6663448426  W2        1183            0.0000000000
      3549      1183  TIP3      H2             -9.9946386291        2.4876705524      -10.3874048426  W2        1183            0.0000000000
      3550      1184  TIP3      OH2            -0.9691986291      -14.4351994476        6.9696251574  W2        1184            0.0000000000
      3551      1184  TIP3      H1             -0.8924786291      -14.8611294476        7.8233951574  W2        1184            0.0000000000
      3552      1184  TIP3      H2             -0.0755386291      -14.4217294476        6.6269751574  W2        1184            0.0000000000
      3553      1185  TIP3      OH2             2.2069113709        1.6374305524        5.6620451574  W2        1185            0.0000000000
      3554      1185  TIP3      H1              1.4251013709        1.4512305524        5.1421051574  W2        1185            0.0000000000
      3555      1185  TIP3      H2              2.1349013709        2.5668605524        5.8792951574  W2        1185            0.0000000000
      3556      1186  TIP3      OH2            16.6129513709       -4.4761294476       -4.3072348426  W2        1186            0.0000000000
      3557      1186  TIP3      H1             16.7020613709       -3.5323094476       -4.4395248426  W2        1186            0.0000000000
      3558      1186  TIP3      H2             15.9747113709       -4.7514894476       -4.9652948426  W2        1186            0.0000000000
      3559      1187  TIP3      OH2            15.5460813709       -5.2210594476       -0.8884148426  W2        1187            0.0000000000
      3560      1187  TIP3      H1             15.5078313709       -5.8674294476       -0.1834548426  W2        1187            0.0000000000
      3561      1187  TIP3      H2             15.2237313709       -5.6876194476       -1.6595448426  W2        1187            0.0000000000
      3562      1188  TIP3      OH2             7.9145813709       -5.6068494476        0.7045751574  W2        1188            0.0000000000
      3563      1188  TIP3      H1              7.9557913709       -6.2325194476        1.4278151574  W2        1188            0.0000000000
      3564      1188  TIP3      H2              8.6173513709       -4.9829894476        0.8866151574  W2        1188            0.0000000000
      3565      1189  TIP3      OH2            19.2521013709       -2.2820194476       -2.5869048426  W2        1189            0.0000000000
      3566      1189  TIP3      H1             18.8113713709       -3.0024194476       -2.1363448426  W2        1189            0.0000000000
      3567      1189  TIP3      H2             19.2390713709       -1.5612994476       -1.9571348426  W2        1189            0.0000000000
      3568      1190  TIP3      OH2             8.8378913709       -1.1569594476       -0.7605148426  W2        1190            0.0000000000
      3569      1190  TIP3      H1              8.4684113709       -1.9589094476       -1.1300848426  W2        1190            0.0000000000
      3570      1190  TIP3      H2              9.7790013709       -1.3254694476       -0.7141748426  W2        1190            0.0000000000
      3571      1191  TIP3      OH2             5.4479413709       -7.4966994476       -5.3676348426  W2        1191            0.0000000000
      3572      1191  TIP3      H1              5.0002813709       -6.6508294476       -5.3859848426  W2        1191            0.0000000000
      3573      1191  TIP3      H2              4.8870613709       -8.0762794476       -5.8831248426  W2        1191            0.0000000000
      3574      1192  TIP3      OH2             6.1585513709       -5.3347394476       -3.2418348426  W2        1192            0.0000000000
      3575      1192  TIP3      H1              6.3719013709       -6.1045794476       -2.7145348426  W2        1192            0.0000000000
      3576      1192  TIP3      H2              6.8963113709       -5.2450694476       -3.8450748426  W2        1192            0.0000000000
      3577      1193  TIP3      OH2            16.3636513709        2.8221505524       -2.3748648426  W2        1193            0.0000000000
      3578      1193  TIP3      H1             16.9832913709        2.1456205524       -2.6479448426  W2        1193            0.0000000000
      3579      1193  TIP3      H2             16.1553913709        2.6042305524       -1.4663748426  W2        1193            0.0000000000
      3580      1194  TIP3      OH2            13.9355213709       -2.7889194476       -0.4823148426  W2        1194            0.0000000000
      3581      1194  TIP3      H1             14.2393113709       -3.4747794476       -1.0769048426  W2        1194            0.0000000000
      3582      1194  TIP3      H2             14.6569213709       -2.6700494476        0.1354851574  W2        1194            0.0000000000
      3583      1195  TIP3      OH2            22.5985013709      -11.1873894476        0.3783051574  W2        1195            0.0000000000
      3584      1195  TIP3      H1             22.6477213709      -10.5772694476        1.1142151574  W2        1195            0.0000000000
      3585      1195  TIP3      H2             23.0240113709      -10.7262994476       -0.3445848426  W2        1195            0.0000000000
      3586      1196  TIP3      OH2            17.0762213709       -8.3946794476       -0.1548348426  W2        1196            0.0000000000
      3587      1196  TIP3      H1             17.2188113709       -9.3409794476       -0.1346748426  W2        1196            0.0000000000
      3588      1196  TIP3      H2             16.9701213709       -8.1876994476       -1.0833448426  W2        1196            0.0000000000
      3589      1197  TIP3      OH2            10.2310513709      -10.2930394476       -2.8823548426  W2        1197            0.0000000000
      3590      1197  TIP3      H1             10.2741613709       -9.4331894476       -3.3007248426  W2        1197            0.0000000000
      3591      1197  TIP3      H2              9.7734613709      -10.8455694476       -3.5160348426  W2        1197            0.0000000000
      3592      1198  TIP3      OH2            17.9533213709      -10.1624794476       -4.4815248426  W2        1198            0.0000000000
      3593      1198  TIP3      H1             18.5997513709      -10.4911594476       -3.8567648426  W2        1198            0.0000000000
      3594      1198  TIP3      H2             18.4632613709       -9.6445794476       -5.1043848426  W2        1198            0.0000000000
      3595      1199  TIP3      OH2             6.8512013709       -7.8964594476       -2.1202148426  W2        1199            0.0000000000
      3596      1199  TIP3      H1              7.5048613709       -8.4462894476       -1.6882048426  W2        1199            0.0000000000
      3597      1199  TIP3      H2              6.8751313709       -8.1705594476       -3.0370148426  W2        1199            0.0000000000
      3598      1200  TIP3      OH2            12.0076513709       -6.3463294476       -2.9050648426  W2        1200            0.0000000000
      3599      1200  TIP3      H1             12.6237513709       -6.8727894476       -2.3956648426  W2        1200            0.0000000000
      3600      1200  TIP3      H2             11.4215313709       -6.9864594476       -3.3087048426  W2        1200            0.0000000000
      3601      1201  TIP3      OH2            22.9899613709       -9.7094694476        2.6142851574  W2        1201            0.0000000000
      3602      1201  TIP3      H1             22.3014213709       -9.0513994476        2.5189451574  W2        1201            0.0000000000
      3603      1201  TIP3      H2             23.0054213709       -9.9066794476        3.5508251574  W2        1201            0.0000000000
      3604      1202  TIP3      OH2             9.0412413709      -11.3751994476        1.1917251574  W2        1202            0.0000000000
      3605      1202  TIP3      H1              8.8224113709      -10.8451394476        0.4253251574  W2        1202            0.0000000000
      3606      1202  TIP3      H2              8.3733313709      -11.1486494476        1.8388651574  W2        1202            0.0000000000
      3607      1203  TIP3      OH2            16.4102213709       -1.8750894476       -5.2643648426  W2        1203            0.0000000000
      3608      1203  TIP3      H1             16.1147313709       -2.1978594476       -6.1156748426  W2        1203            0.0000000000
      3609      1203  TIP3      H2             16.0860013709       -0.9754194476       -5.2231048426  W2        1203            0.0000000000
      3610      1204  TIP3      OH2            11.6103813709       -3.6996294476        1.4790951574  W2        1204            0.0000000000
      3611      1204  TIP3      H1             10.8702913709       -3.1014794476        1.5826151574  W2        1204            0.0000000000
      3612      1204  TIP3      H2             12.3243313709       -3.1456694476        1.1634551574  W2        1204            0.0000000000
      3613      1205  TIP3      OH2            19.7171613709      -10.8715494476       -2.5009348426  W2        1205            0.0000000000
      3614      1205  TIP3      H1             19.5019613709      -11.6372094476       -1.9683348426  W2        1205            0.0000000000
      3615      1205  TIP3      H2             20.3729013709      -10.3990894476       -1.9880848426  W2        1205            0.0000000000
      3616      1206  TIP3      OH2             8.6349713709       -9.4830194476       -0.8560548426  W2        1206            0.0000000000
      3617      1206  TIP3      H1              9.2486013709       -8.8502594476       -0.4828148426  W2        1206            0.0000000000
      3618      1206  TIP3      H2              9.1470413709       -9.9555194476       -1.5123648426  W2        1206            0.0000000000
      3619      1207  TIP3      OH2            10.0178113709       -1.7353294476        2.2662451574  W2        1207            0.0000000000
      3620      1207  TIP3      H1             10.0125713709       -0.8559794476        1.8881751574  W2        1207            0.0000000000
      3621      1207  TIP3      H2              9.1642213709       -1.8189194476        2.6912351574  W2        1207            0.0000000000
      3622      1208  TIP3      OH2             6.1389013709       -2.0645394476       -6.9518248426  W2        1208            0.0000000000
      3623      1208  TIP3      H1              5.8669913709       -1.8354394476       -7.8405348426  W2        1208            0.0000000000
      3624      1208  TIP3      H2              6.1844713709       -1.2266594476       -6.4912948426  W2        1208            0.0000000000
      3625      1209  TIP3      OH2            19.7638713709       -0.4429494476       -0.2389748426  W2        1209            0.0000000000
      3626      1209  TIP3      H1             18.8222413709       -0.3845594476       -0.0772848426  W2        1209            0.0000000000
      3627      1209  TIP3      H2             20.0404813709        0.4631005524       -0.3760048426  W2        1209            0.0000000000
      3628      1210  TIP3      OH2            20.0645713709      -12.1564194476        1.1784151574  W2        1210            0.0000000000
      3629      1210  TIP3      H1             19.3284913709      -11.5457094476        1.1405451574  W2        1210            0.0000000000
      3630      1210  TIP3      H2             20.7479713709      -11.7415194476        0.6520551574  W2        1210            0.0000000000
      3631      1211  TIP3      OH2            13.0677113709      -14.0696894476       -1.3557848426  W2        1211            0.0000000000
      3632      1211  TIP3      H1             12.9501313709      -15.0180894476       -1.4099548426  W2        1211            0.0000000000
      3633      1211  TIP3      H2             12.2127213709      -13.7370794476       -1.0826748426  W2        1211            0.0000000000
      3634      1212  TIP3      OH2            18.0159913709        1.3384005524       -3.6138148426  W2        1212            0.0000000000
      3635      1212  TIP3      H1             18.4412213709        0.6311905524       -4.0988548426  W2        1212            0.0000000000
      3636      1212  TIP3      H2             18.3329913709        2.1396705524       -4.0305948426  W2        1212            0.0000000000
      3637      1213  TIP3      OH2            19.1756413709       -0.7607494476       -5.1051548426  W2        1213            0.0000000000
      3638      1213  TIP3      H1             18.9181213709       -1.4507394476       -5.7165648426  W2        1213            0.0000000000
      3639      1213  TIP3      H2             19.2467213709       -1.2036294476       -4.2595648426  W2        1213            0.0000000000
      3640      1214  TIP3      OH2            20.8616613709       -2.1940794476        3.3721951574  W2        1214            0.0000000000
      3641      1214  TIP3      H1             21.0012913709       -2.7858294476        2.6328951574  W2        1214            0.0000000000
      3642      1214  TIP3      H2             21.0289413709       -1.3214894476        3.0160751574  W2        1214            0.0000000000
      3643      1215  TIP3      OH2            15.3342013709       -5.2321294476       -6.8552048426  W2        1215            0.0000000000
      3644      1215  TIP3      H1             14.6227513709       -4.6971594476       -7.2071548426  W2        1215            0.0000000000
      3645      1215  TIP3      H2             16.0251613709       -5.1769194476       -7.5153148426  W2        1215            0.0000000000
      3646      1216  TIP3      OH2            15.3881213709       -6.7746994476       -9.8167048426  W2        1216            0.0000000000
      3647      1216  TIP3      H1             16.0891113709       -6.7520094476       -9.1653048426  W2        1216            0.0000000000
      3648      1216  TIP3      H2             15.6904113709       -7.4027294476      -10.4727748426  W2        1216            0.0000000000
      3649      1217  TIP3      OH2            22.7035913709       -5.8542794476        1.4382351574  W2        1217            0.0000000000
      3650      1217  TIP3      H1             22.0510013709       -5.1597194476        1.5273251574  W2        1217            0.0000000000
      3651      1217  TIP3      H2             23.1686213709       -5.6441894476        0.6283951574  W2        1217            0.0000000000
      3652      1218  TIP3      OH2            18.7399713709       -5.0227994476       -5.9036148426  W2        1218            0.0000000000
      3653      1218  TIP3      H1             18.0080713709       -4.7944294476       -5.3305548426  W2        1218            0.0000000000
      3654      1218  TIP3      H2             19.1871913709       -5.7365294476       -5.4488648426  W2        1218            0.0000000000
      3655      1219  TIP3      OH2            18.6373213709       -6.8485394476        3.1640851574  W2        1219            0.0000000000
      3656      1219  TIP3      H1             18.7172313709       -6.0850994476        3.7359351574  W2        1219            0.0000000000
      3657      1219  TIP3      H2             18.0360913709       -6.5692994476        2.4735951574  W2        1219            0.0000000000
      3658      1220  TIP3      OH2            10.3853413709       -4.3921794476       -4.0211148426  W2        1220            0.0000000000
      3659      1220  TIP3      H1             10.0548613709       -4.7628394476       -4.8394148426  W2        1220            0.0000000000
      3660      1220  TIP3      H2             10.9737513709       -5.0627794476       -3.6742848426  W2        1220            0.0000000000
      3661      1221  TIP3      OH2            11.7520913709       -0.9641194476       -1.3398948426  W2        1221            0.0000000000
      3662      1221  TIP3      H1             11.6572213709       -1.5428094476       -2.0964348426  W2        1221            0.0000000000
      3663      1221  TIP3      H2             12.4814513709       -1.3355494476       -0.8436148426  W2        1221            0.0000000000
      3664      1222  TIP3      OH2            10.7518913709       -5.6236194476       -0.3876148426  W2        1222            0.0000000000
      3665      1222  TIP3      H1             11.3171413709       -5.5021994476       -1.1504948426  W2        1222            0.0000000000
      3666      1222  TIP3      H2             11.0707813709       -4.9861194476        0.2512351574  W2        1222            0.0000000000
      3667      1223  TIP3      OH2            17.0611113709       -0.1204294476        0.3464351574  W2        1223            0.0000000000
      3668      1223  TIP3      H1             16.8207713709        0.5418805524        0.9943551574  W2        1223            0.0000000000
      3669      1223  TIP3      H2             16.8629313709       -0.9549094476        0.7713951574  W2        1223            0.0000000000
      3670      1224  TIP3      OH2            11.6319613709       -1.2243494476        4.3295751574  W2        1224            0.0000000000
      3671      1224  TIP3      H1             11.3207113709       -0.4420294476        4.7848951574  W2        1224            0.0000000000
      3672      1224  TIP3      H2             10.9819813709       -1.3774394476        3.6437751574  W2        1224            0.0000000000
      3673      1225  TIP3      OH2            17.6109213709       -5.8605094476       -8.2184948426  W2        1225            0.0000000000
      3674      1225  TIP3      H1             18.1904713709       -5.7104794476       -7.4716048426  W2        1225            0.0000000000
      3675      1225  TIP3      H2             18.0249213709       -5.3897694476       -8.9418548426  W2        1225            0.0000000000
      3676      1226  TIP3      OH2             8.5519513709       -5.0262394476        3.5581451574  W2        1226            0.0000000000
      3677      1226  TIP3      H1              8.6222713709       -4.3755594476        4.2566451574  W2        1226            0.0000000000
      3678      1226  TIP3      H2              7.6611713709       -4.9234894476        3.2232351574  W2        1226            0.0000000000
      3679      1227  TIP3      OH2            15.3374113709        0.8763405524       -4.7831848426  W2        1227            0.0000000000
      3680      1227  TIP3      H1             15.8111713709        1.1719705524       -4.0057648426  W2        1227            0.0000000000
      3681      1227  TIP3      H2             14.7743413709        1.6145005524       -5.0162248426  W2        1227            0.0000000000
      3682      1228  TIP3      OH2             9.8715513709        0.8471505524        5.0929551574  W2        1228            0.0000000000
      3683      1228  TIP3      H1              9.8790813709        0.7111205524        4.1455051574  W2        1228            0.0000000000
      3684      1228  TIP3      H2              8.9555913709        0.7299605524        5.3449551574  W2        1228            0.0000000000
      3685      1229  TIP3      OH2            21.3097613709      -14.1104694476       -8.4055248426  W2        1229            0.0000000000
      3686      1229  TIP3      H1             20.4098313709      -13.9715694476       -8.1104648426  W2        1229            0.0000000000
      3687      1229  TIP3      H2             21.5616013709      -13.2790094476       -8.8073548426  W2        1229            0.0000000000
      3688      1230  TIP3      OH2             9.3756113709       -5.3227494476       -6.4318348426  W2        1230            0.0000000000
      3689      1230  TIP3      H1              9.0837413709       -4.5545794476       -6.9227048426  W2        1230            0.0000000000
      3690      1230  TIP3      H2              8.7011313709       -5.9821294476       -6.5946948426  W2        1230            0.0000000000
      3691      1231  TIP3      OH2            22.4989013709        0.2557705524      -10.0291348426  W2        1231            0.0000000000
      3692      1231  TIP3      H1             22.5722513709        1.1947905524       -9.8586048426  W2        1231            0.0000000000
      3693      1231  TIP3      H2             23.4044113709       -0.0493694476      -10.0854048426  W2        1231            0.0000000000
      3694      1232  TIP3      OH2             5.4686213709       -2.9598294476        2.3831451574  W2        1232            0.0000000000
      3695      1232  TIP3      H1              4.9674613709       -2.9878894476        1.5681151574  W2        1232            0.0000000000
      3696      1232  TIP3      H2              5.4739913709       -3.8655094476        2.6928751574  W2        1232            0.0000000000
      3697      1233  TIP3      OH2             5.2188913709       -0.1794494476       -0.7328348426  W2        1233            0.0000000000
      3698      1233  TIP3      H1              6.1649513709       -0.3237494476       -0.7518848426  W2        1233            0.0000000000
      3699      1233  TIP3      H2              5.1065213709        0.6048305524       -0.1957148426  W2        1233            0.0000000000
      3700      1234  TIP3      OH2            23.4167413709        0.4865205524        4.9495351574  W2        1234            0.0000000000
      3701      1234  TIP3      H1             23.3674213709       -0.4686694476        4.9122951574  W2        1234            0.0000000000
      3702      1234  TIP3      H2             22.5899713709        0.7540505524        5.3509151574  W2        1234            0.0000000000
      3703      1235  TIP3      OH2            14.3951413709        0.0604405524        3.8256751574  W2        1235            0.0000000000
      3704      1235  TIP3      H1             14.4826013709        0.8869005524        4.3005851574  W2        1235            0.0000000000
      3705      1235  TIP3      H2             13.5316513709       -0.2691794476        4.0746051574  W2        1235            0.0000000000
      3706      1236  TIP3      OH2            14.8097213709        3.8328105524       -6.3682648426  W2        1236            0.0000000000
      3707      1236  TIP3      H1             14.7343213709        3.7115305524       -7.3147448426  W2        1236            0.0000000000
      3708      1236  TIP3      H2             14.8425913709        4.7820805524       -6.2498048426  W2        1236            0.0000000000
      3709      1237  TIP3      OH2             8.4631013709        2.6215105524       -4.5873648426  W2        1237            0.0000000000
      3710      1237  TIP3      H1              8.6151413709        2.2735505524       -3.7087148426  W2        1237            0.0000000000
      3711      1237  TIP3      H2              7.6121413709        2.2652405524       -4.8426448426  W2        1237            0.0000000000
      3712      1238  TIP3      OH2            17.9113213709        2.9868305524       -9.3660248426  W2        1238            0.0000000000
      3713      1238  TIP3      H1             18.2861613709        2.2424405524       -9.8367648426  W2        1238            0.0000000000
      3714      1238  TIP3      H2             17.9156913709        2.7168905524       -8.4476948426  W2        1238            0.0000000000
      3715      1239  TIP3      OH2            17.5801313709        2.9125405524       -6.6168048426  W2        1239            0.0000000000
      3716      1239  TIP3      H1             16.6451113709        3.0127305524       -6.4381048426  W2        1239            0.0000000000
      3717      1239  TIP3      H2             17.8603213709        2.2031405524       -6.0384848426  W2        1239            0.0000000000
      3718      1240  TIP3      OH2            20.5687213709       -8.0202294476        5.4297551574  W2        1240            0.0000000000
      3719      1240  TIP3      H1             20.1614013709       -7.5396694476        4.7090851574  W2        1240            0.0000000000
      3720      1240  TIP3      H2             20.6092913709       -8.9256294476        5.1218351574  W2        1240            0.0000000000
      3721      1241  TIP3      OH2             7.7176713709       -1.6362894476        3.4264251574  W2        1241            0.0000000000
      3722      1241  TIP3      H1              7.9338013709       -1.9977294476        4.2860051574  W2        1241            0.0000000000
      3723      1241  TIP3      H2              6.8621413709       -2.0109094476        3.2167751574  W2        1241            0.0000000000
      3724      1242  TIP3      OH2            10.3364713709      -13.1662394476       -0.5781548426  W2        1242            0.0000000000
      3725      1242  TIP3      H1              9.4748413709      -13.2534194476       -0.9858648426  W2        1242            0.0000000000
      3726      1242  TIP3      H2             10.3140413709      -12.3102294476       -0.1503948426  W2        1242            0.0000000000
      3727      1243  TIP3      OH2            14.9992513709      -13.4441994476        2.7965451574  W2        1243            0.0000000000
      3728      1243  TIP3      H1             15.4195613709      -13.8594894476        3.5496051574  W2        1243            0.0000000000
      3729      1243  TIP3      H2             14.0662113709      -13.6228694476        2.9137451574  W2        1243            0.0000000000
      3730      1244  TIP3      OH2            18.3257413709       -9.6886794476        3.6499951574  W2        1244            0.0000000000
      3731      1244  TIP3      H1             17.8116913709       -9.8144594476        4.4475951574  W2        1244            0.0000000000
      3732      1244  TIP3      H2             18.1702113709       -8.7763694476        3.4056151574  W2        1244            0.0000000000
      3733      1245  TIP3      OH2            19.0882313709       -4.8276794476      -10.5887048426  W2        1245            0.0000000000
      3734      1245  TIP3      H1             19.1303113709       -5.0502894476      -11.5187048426  W2        1245            0.0000000000
      3735      1245  TIP3      H2             19.9374413709       -4.4289694476      -10.3987148426  W2        1245            0.0000000000
      3736      1246  TIP3      OH2            14.6609813709      -10.9518594476       -9.9183748426  W2        1246            0.0000000000
      3737      1246  TIP3      H1             14.4074613709      -10.9326994476       -8.9955648426  W2        1246            0.0000000000
      3738      1246  TIP3      H2             14.4041913709      -11.8233194476      -10.2197548426  W2        1246            0.0000000000
      3739      1247  TIP3      OH2            10.4274813709       -8.2007894476        0.5168651574  W2        1247            0.0000000000
      3740      1247  TIP3      H1              9.7856913709       -8.2410594476        1.2258751574  W2        1247            0.0000000000
      3741      1247  TIP3      H2             10.4646813709       -7.2743194476        0.2791651574  W2        1247            0.0000000000
      3742      1248  TIP3      OH2            10.4243913709       -7.9797794476       -4.5711348426  W2        1248            0.0000000000
      3743      1248  TIP3      H1              9.5316813709       -8.3201694476       -4.6297548426  W2        1248            0.0000000000
      3744      1248  TIP3      H2             10.8750513709       -8.3566894476       -5.3268148426  W2        1248            0.0000000000
      3745      1249  TIP3      OH2            15.9599413709       -7.5637494476       -5.7540548426  W2        1249            0.0000000000
      3746      1249  TIP3      H1             15.5509713709       -6.7488894476       -6.0455748426  W2        1249            0.0000000000
      3747      1249  TIP3      H2             16.6805613709       -7.7037394476       -6.3683448426  W2        1249            0.0000000000
      3748      1250  TIP3      OH2            15.0621013709       -7.3881094476        5.7340151574  W2        1250            0.0000000000
      3749      1250  TIP3      H1             14.4994813709       -8.0929494476        6.0547951574  W2        1250            0.0000000000
      3750      1250  TIP3      H2             15.8884413709       -7.5089194476        6.2017751574  W2        1250            0.0000000000
      3751      1251  TIP3      OH2            16.9647113709       -8.1177094476       -2.9400848426  W2        1251            0.0000000000
      3752      1251  TIP3      H1             16.7691613709       -7.5120294476       -3.6550248426  W2        1251            0.0000000000
      3753      1251  TIP3      H2             17.1459713709       -8.9511894476       -3.3744548426  W2        1251            0.0000000000
      3754      1252  TIP3      OH2             8.1775313709       -7.8804394476        2.3840651574  W2        1252            0.0000000000
      3755      1252  TIP3      H1              8.1394713709       -7.4802794476        3.2527751574  W2        1252            0.0000000000
      3756      1252  TIP3      H2              7.6866413709       -8.6971994476        2.4743551574  W2        1252            0.0000000000
      3757      1253  TIP3      OH2            11.5432713709      -10.5062094476      -10.8173348426  W2        1253            0.0000000000
      3758      1253  TIP3      H1             11.1123413709      -10.9511994476      -10.0875948426  W2        1253            0.0000000000
      3759      1253  TIP3      H2             10.8251413709      -10.1345794476      -11.3295848426  W2        1253            0.0000000000
      3760      1254  TIP3      OH2             4.7856113709      -10.7642594476       -3.7654648426  W2        1254            0.0000000000
      3761      1254  TIP3      H1              5.4163813709      -10.7930494476       -3.0460748426  W2        1254            0.0000000000
      3762      1254  TIP3      H2              5.2350413709      -11.1893894476       -4.4958748426  W2        1254            0.0000000000
      3763      1255  TIP3      OH2             6.0598213709      -10.0180594476       -8.3414248426  W2        1255            0.0000000000
      3764      1255  TIP3      H1              6.5339913709       -9.4270694476       -8.9263348426  W2        1255            0.0000000000
      3765      1255  TIP3      H2              5.3424613709       -9.4877694476       -7.9944148426  W2        1255            0.0000000000
      3766      1256  TIP3      OH2            16.2286313709       -6.4795794476        1.7311551574  W2        1256            0.0000000000
      3767      1256  TIP3      H1             16.5521113709       -7.1106094476        1.0882051574  W2        1256            0.0000000000
      3768      1256  TIP3      H2             15.7885613709       -7.0143594476        2.3918951574  W2        1256            0.0000000000
      3769      1257  TIP3      OH2            13.0059213709      -10.5520294476       -3.4847248426  W2        1257            0.0000000000
      3770      1257  TIP3      H1             12.0950313709      -10.4953494476       -3.1961248426  W2        1257            0.0000000000
      3771      1257  TIP3      H2             13.5112113709      -10.6124794476       -2.6740048426  W2        1257            0.0000000000
      3772      1258  TIP3      OH2             7.8342613709       -8.9233994476       -4.6579648426  W2        1258            0.0000000000
      3773      1258  TIP3      H1              6.9450613709       -8.8238494476       -4.9980048426  W2        1258            0.0000000000
      3774      1258  TIP3      H2              8.1307513709       -9.7650994476       -5.0041748426  W2        1258            0.0000000000
      3775      1259  TIP3      OH2            11.4874413709       -8.9231394476       -7.0015048426  W2        1259            0.0000000000
      3776      1259  TIP3      H1             12.4189913709       -8.7941394476       -6.8231948426  W2        1259            0.0000000000
      3777      1259  TIP3      H2             11.2724713709       -8.2537094476       -7.6510348426  W2        1259            0.0000000000
      3778      1260  TIP3      OH2            17.4111113709      -11.3173994476       -0.2205448426  W2        1260            0.0000000000
      3779      1260  TIP3      H1             16.7342713709      -11.1860894476        0.4434251574  W2        1260            0.0000000000
      3780      1260  TIP3      H2             16.9256013709      -11.4724494476       -1.0307748426  W2        1260            0.0000000000
      3781      1261  TIP3      OH2            10.1614613709       -7.7289194476       -9.4348948426  W2        1261            0.0000000000
      3782      1261  TIP3      H1              9.6189713709       -8.1085394476      -10.1261348426  W2        1261            0.0000000000
      3783      1261  TIP3      H2             10.9949513709       -7.5344494476       -9.8634848426  W2        1261            0.0000000000
      3784      1262  TIP3      OH2            20.6986213709        4.3541405524        6.0562151574  W2        1262            0.0000000000
      3785      1262  TIP3      H1             20.8984913709        4.7783305524        5.2217451574  W2        1262            0.0000000000
      3786      1262  TIP3      H2             21.3539913709        4.6979605524        6.6632551574  W2        1262            0.0000000000
      3787      1263  TIP3      OH2             8.2966013709       -3.1717294476        5.6642651574  W2        1263            0.0000000000
      3788      1263  TIP3      H1              9.0288413709       -2.9171394476        6.2257151574  W2        1263            0.0000000000
      3789      1263  TIP3      H2              7.5164713709       -2.9671894476        6.1798051574  W2        1263            0.0000000000
      3790      1264  TIP3      OH2            14.3258913709       -7.7647294476       -1.5977648426  W2        1264            0.0000000000
      3791      1264  TIP3      H1             14.8902313709       -8.3110694476       -2.1448048426  W2        1264            0.0000000000
      3792      1264  TIP3      H2             14.1782313709       -8.2865394476       -0.8090048426  W2        1264            0.0000000000
      3793      1265  TIP3      OH2             9.3278613709      -11.6281194476       -5.1792848426  W2        1265            0.0000000000
      3794      1265  TIP3      H1              9.0108113709      -12.5305894476       -5.2147448426  W2        1265            0.0000000000
      3795      1265  TIP3      H2             10.1092713709      -11.6263794476       -5.7321248426  W2        1265            0.0000000000
      3796      1266  TIP3      OH2            12.9524813709       -9.3761194476        0.8162751574  W2        1266            0.0000000000
      3797      1266  TIP3      H1             12.1170113709       -8.9221694476        0.9265151574  W2        1266            0.0000000000
      3798      1266  TIP3      H2             13.4765413709       -9.1002694476        1.5682651574  W2        1266            0.0000000000
      3799      1267  TIP3      OH2            13.4967413709       -3.1633494476       -7.4990848426  W2        1267            0.0000000000
      3800      1267  TIP3      H1             12.7518413709       -3.6708194476       -7.8212948426  W2        1267            0.0000000000
      3801      1267  TIP3      H2             13.3624613709       -3.1145494476       -6.5526048426  W2        1267            0.0000000000
      3802      1268  TIP3      OH2            20.6466313709       -4.0305294476        1.2876751574  W2        1268            0.0000000000
      3803      1268  TIP3      H1             21.2885113709       -3.5738994476        0.7438951574  W2        1268            0.0000000000
      3804      1268  TIP3      H2             19.8163213709       -3.9172894476        0.8250851574  W2        1268            0.0000000000
      3805      1269  TIP3      OH2            17.3944213709      -10.3493594476       -9.2998248426  W2        1269            0.0000000000
      3806      1269  TIP3      H1             16.4558413709      -10.2377994476       -9.4509448426  W2        1269            0.0000000000
      3807      1269  TIP3      H2             17.6916313709       -9.4926694476       -8.9932548426  W2        1269            0.0000000000
      3808      1270  TIP3      OH2            15.0159513709       -2.9790194476        3.7378251574  W2        1270            0.0000000000
      3809      1270  TIP3      H1             14.6705613709       -3.3607794476        4.5447851574  W2        1270            0.0000000000
      3810      1270  TIP3      H2             14.8159613709       -2.0456594476        3.8091151574  W2        1270            0.0000000000
      3811      1271  TIP3      OH2            18.1127713709       -8.4820894476       -7.6390848426  W2        1271            0.0000000000
      3812      1271  TIP3      H1             19.0046713709       -8.6195894476       -7.3199648426  W2        1271            0.0000000000
      3813      1271  TIP3      H2             18.1691313709       -7.6914794476       -8.1757348426  W2        1271            0.0000000000
      3814      1272  TIP3      OH2             8.6215713709       -3.8683494476       -1.7292948426  W2        1272            0.0000000000
      3815      1272  TIP3      H1              9.3662913709       -3.8707794476       -2.3306448426  W2        1272            0.0000000000
      3816      1272  TIP3      H2              8.6992313709       -4.6919694476       -1.2477848426  W2        1272            0.0000000000
      3817      1273  TIP3      OH2            15.6221513709       -1.7049194476       -8.4736248426  W2        1273            0.0000000000
      3818      1273  TIP3      H1             15.3269913709       -0.8781294476       -8.0921448426  W2        1273            0.0000000000
      3819      1273  TIP3      H2             14.9191513709       -2.3242294476       -8.2774848426  W2        1273            0.0000000000
      3820      1274  TIP3      OH2             5.6295413709       -5.4076594476        3.5855551574  W2        1274            0.0000000000
      3821      1274  TIP3      H1              5.8524013709       -5.8256994476        4.4173051574  W2        1274            0.0000000000
      3822      1274  TIP3      H2              5.0275513709       -6.0201594476        3.1628351574  W2        1274            0.0000000000
      3823      1275  TIP3      OH2            12.6460313709       -5.8906694476        5.7985251574  W2        1275            0.0000000000
      3824      1275  TIP3      H1             12.3501113709       -6.0563694476        4.9034351574  W2        1275            0.0000000000
      3825      1275  TIP3      H2             13.5775513709       -6.1106394476        5.7879151574  W2        1275            0.0000000000
      3826      1276  TIP3      OH2            17.2663113709       -0.5174694476        3.6883251574  W2        1276            0.0000000000
      3827      1276  TIP3      H1             16.3657413709       -0.3342094476        3.4207151574  W2        1276            0.0000000000
      3828      1276  TIP3      H2             17.3004213709       -0.2585394476        4.6092051574  W2        1276            0.0000000000
      3829      1277  TIP3      OH2            22.9976413709       -8.2726794476       -7.9444148426  W2        1277            0.0000000000
      3830      1277  TIP3      H1             22.4432713709       -8.6688794476       -8.6166648426  W2        1277            0.0000000000
      3831      1277  TIP3      H2             23.0980013709       -7.3621594476       -8.2220848426  W2        1277            0.0000000000
      3832      1278  TIP3      OH2            22.9608413709       -2.4725094476        4.8927351574  W2        1278            0.0000000000
      3833      1278  TIP3      H1             22.1096913709       -2.2341294476        4.5253751574  W2        1278            0.0000000000
      3834      1278  TIP3      H2             23.5511813709       -2.4891894476        4.1394451574  W2        1278            0.0000000000
      3835      1279  TIP3      OH2            21.2928113709        0.5133605524       -7.4792048426  W2        1279            0.0000000000
      3836      1279  TIP3      H1             20.9199213709       -0.3122594476       -7.1701448426  W2        1279            0.0000000000
      3837      1279  TIP3      H2             21.5701613709        0.3303005524       -8.3768648426  W2        1279            0.0000000000
      3838      1280  TIP3      OH2            18.4532013709       -4.6786894476       -0.4580148426  W2        1280            0.0000000000
      3839      1280  TIP3      H1             17.5248913709       -4.9104994476       -0.4850848426  W2        1280            0.0000000000
      3840      1280  TIP3      H2             18.9043113709       -5.4557094476       -0.7881348426  W2        1280            0.0000000000
      3841      1281  TIP3      OH2            10.9965113709       -0.3505294476       -4.3251448426  W2        1281            0.0000000000
      3842      1281  TIP3      H1             11.5237313709        0.4229105524       -4.5252648426  W2        1281            0.0000000000
      3843      1281  TIP3      H2             10.1163613709       -0.1256094476       -4.6267448426  W2        1281            0.0000000000
      3844      1282  TIP3      OH2             6.7512813709       -5.4881194476       -9.7379048426  W2        1282            0.0000000000
      3845      1282  TIP3      H1              7.3672713709       -4.8613994476       -9.3584248426  W2        1282            0.0000000000
      3846      1282  TIP3      H2              5.8895413709       -5.1721394476       -9.4662548426  W2        1282            0.0000000000
      3847      1283  TIP3      OH2            12.4237413709       -2.6875394476       -4.7487148426  W2        1283            0.0000000000
      3848      1283  TIP3      H1             12.1827413709       -1.7620994476       -4.7071848426  W2        1283            0.0000000000
      3849      1283  TIP3      H2             11.6831013709       -3.1464094476       -4.3523248426  W2        1283            0.0000000000
      3850      1284  TIP3      OH2            12.9384013709        1.4618205524        1.5663951574  W2        1284            0.0000000000
      3851      1284  TIP3      H1             13.3008713709        2.3163805524        1.3328351574  W2        1284            0.0000000000
      3852      1284  TIP3      H2             13.4699213709        1.1699805524        2.3070251574  W2        1284            0.0000000000
      3853      1285  TIP3      OH2            11.1068213709        2.3342205524       -5.2034948426  W2        1285            0.0000000000
      3854      1285  TIP3      H1             10.1568713709        2.4399605524       -5.1521648426  W2        1285            0.0000000000
      3855      1285  TIP3      H2             11.4586313709        3.1549605524       -4.8587448426  W2        1285            0.0000000000
      3856      1286  TIP3      OH2            16.4824813709       -2.4391094476        1.2669551574  W2        1286            0.0000000000
      3857      1286  TIP3      H1             16.0566113709       -2.6669394476        2.0933551574  W2        1286            0.0000000000
      3858      1286  TIP3      H2             17.0630613709       -3.1779294476        1.0844851574  W2        1286            0.0000000000
      3859      1287  TIP3      OH2            18.6853713709       -1.5100594476       -9.6591448426  W2        1287            0.0000000000
      3860      1287  TIP3      H1             19.0386813709       -1.8900794476       -8.8547948426  W2        1287            0.0000000000
      3861      1287  TIP3      H2             17.7367213709       -1.6035794476       -9.5722148426  W2        1287            0.0000000000
      3862      1288  TIP3      OH2            19.1409013709        2.1128405524        3.7364351574  W2        1288            0.0000000000
      3863      1288  TIP3      H1             18.5392213709        1.5571305524        3.2410651574  W2        1288            0.0000000000
      3864      1288  TIP3      H2             19.4222713709        2.7798205524        3.1101751574  W2        1288            0.0000000000
      3865      1289  TIP3      OH2            23.1888113709        2.9691905524       -9.4581248426  W2        1289            0.0000000000
      3866      1289  TIP3      H1             23.9326013709        3.5552405524       -9.5979648426  W2        1289            0.0000000000
      3867      1289  TIP3      H2             22.4946213709        3.5377705524       -9.1248848426  W2        1289            0.0000000000
      3868      1290  TIP3      OH2             7.2634913709      -10.6543894476        3.1436951574  W2        1290            0.0000000000
      3869      1290  TIP3      H1              6.3707213709      -10.3158494476        3.0760951574  W2        1290            0.0000000000
      3870      1290  TIP3      H2              7.1647713709      -11.5097794476        3.5617751574  W2        1290            0.0000000000
      3871      1291  TIP3      OH2            19.5513013709       -2.8378594476       -7.4323548426  W2        1291            0.0000000000
      3872      1291  TIP3      H1             19.2740613709       -3.5659294476       -6.8762448426  W2        1291            0.0000000000
      3873      1291  TIP3      H2             20.4786013709       -2.7186594476       -7.2270948426  W2        1291            0.0000000000
      3874      1292  TIP3      OH2             6.9146913709        1.1500505524        1.5786351574  W2        1292            0.0000000000
      3875      1292  TIP3      H1              7.1317213709        0.2182905524        1.5476051574  W2        1292            0.0000000000
      3876      1292  TIP3      H2              7.1610413709        1.4245505524        2.4619151574  W2        1292            0.0000000000
      3877      1293  TIP3      OH2            12.7761513709       -0.3984494476      -11.2121448426  W2        1293            0.0000000000
      3878      1293  TIP3      H1             13.0151313709       -1.1466394476      -11.7592548426  W2        1293            0.0000000000
      3879      1293  TIP3      H2             12.5072813709       -0.7862794476      -10.3793648426  W2        1293            0.0000000000
      3880      1294  TIP3      OH2            11.7132113709       -0.8280694476       -8.7558848426  W2        1294            0.0000000000
      3881      1294  TIP3      H1             11.8600113709       -1.3480894476       -7.9657948426  W2        1294            0.0000000000
      3882      1294  TIP3      H2             11.7103813709        0.0786905524       -8.4492948426  W2        1294            0.0000000000
      3883      1295  TIP3      OH2             8.1663213709       -3.5757394476       -8.2453448426  W2        1295            0.0000000000
      3884      1295  TIP3      H1              7.4802513709       -3.2234894476       -7.6783748426  W2        1295            0.0000000000
      3885      1295  TIP3      H2              8.6891113709       -2.8127794476       -8.4919148426  W2        1295            0.0000000000
      3886      1296  TIP3      OH2            15.9978313709      -10.9133594476        2.0335551574  W2        1296            0.0000000000
      3887      1296  TIP3      H1             16.6966213709      -10.8394894476        2.6835251574  W2        1296            0.0000000000
      3888      1296  TIP3      H2             15.6169713709      -11.7778594476        2.1878451574  W2        1296            0.0000000000
      3889      1297  TIP3      OH2            16.7823213709      -11.2611894476       -6.8692148426  W2        1297            0.0000000000
      3890      1297  TIP3      H1             17.0021513709      -10.7896494476       -7.6726748426  W2        1297            0.0000000000
      3891      1297  TIP3      H2             17.3407213709      -10.8669294476       -6.1991548426  W2        1297            0.0000000000
      3892      1298  TIP3      OH2            14.4509313709        0.8692905524       -8.0064648426  W2        1298            0.0000000000
      3893      1298  TIP3      H1             13.6345413709        1.3662605524       -7.9540348426  W2        1298            0.0000000000
      3894      1298  TIP3      H2             14.9805613709        1.3446405524       -8.6465848426  W2        1298            0.0000000000
      3895      1299  TIP3      OH2            13.9823113709       -9.5333094476       -6.0343748426  W2        1299            0.0000000000
      3896      1299  TIP3      H1             14.7945713709       -9.0289894476       -5.9882048426  W2        1299            0.0000000000
      3897      1299  TIP3      H2             13.7376113709       -9.6783394476       -5.1204148426  W2        1299            0.0000000000
      3898      1300  TIP3      OH2            14.5179513709       -8.5470394476        3.1502851574  W2        1300            0.0000000000
      3899      1300  TIP3      H1             14.6369813709       -7.9734994476        3.9073251574  W2        1300            0.0000000000
      3900      1300  TIP3      H2             15.1734113709       -9.2350994476        3.2650651574  W2        1300            0.0000000000
      3901      1301  TIP3      OH2            14.8659813709      -12.4520094476       -5.0962648426  W2        1301            0.0000000000
      3902      1301  TIP3      H1             14.5193313709      -11.8349494476       -4.4518348426  W2        1301            0.0000000000
      3903      1301  TIP3      H2             15.5246713709      -11.9514394476       -5.5777148426  W2        1301            0.0000000000
      3904      1302  TIP3      OH2            11.7892413709        1.9130105524       -8.0247748426  W2        1302            0.0000000000
      3905      1302  TIP3      H1             11.9501113709        2.7127605524       -8.5255148426  W2        1302            0.0000000000
      3906      1302  TIP3      H2             11.5920213709        2.2196105524       -7.1397148426  W2        1302            0.0000000000
      3907      1303  TIP3      OH2            10.5236813709      -11.3890694476       -8.4090148426  W2        1303            0.0000000000
      3908      1303  TIP3      H1             10.4401613709      -10.5007594476       -8.0623748426  W2        1303            0.0000000000
      3909      1303  TIP3      H2             11.4137113709      -11.6543994476       -8.1773348426  W2        1303            0.0000000000
      3910      1304  TIP3      OH2            20.7225313709      -10.6400094476        3.9852551574  W2        1304            0.0000000000
      3911      1304  TIP3      H1             19.8061113709      -10.3778394476        3.8976251574  W2        1304            0.0000000000
      3912      1304  TIP3      H2             21.0580313709      -10.6431094476        3.0887851574  W2        1304            0.0000000000
      3913      1305  TIP3      OH2            19.3246313709       -6.8899094476       -1.9190148426  W2        1305            0.0000000000
      3914      1305  TIP3      H1             18.5270713709       -7.3048894476       -2.2475148426  W2        1305            0.0000000000
      3915      1305  TIP3      H2             19.7697413709       -7.5805394476       -1.4279648426  W2        1305            0.0000000000
      3916      1306  TIP3      OH2             8.7822113709       -0.9618494476       -9.3485648426  W2        1306            0.0000000000
      3917      1306  TIP3      H1              9.3743613709       -0.2623694476       -9.0723248426  W2        1306            0.0000000000
      3918      1306  TIP3      H2              9.2415113709       -1.3948994476      -10.0681048426  W2        1306            0.0000000000
      3919      1307  TIP3      OH2             7.0981313709       -8.2975494476      -10.2326248426  W2        1307            0.0000000000
      3920      1307  TIP3      H1              7.0533913709       -7.3582394476      -10.0539248426  W2        1307            0.0000000000
      3921      1307  TIP3      H2              6.2104513709       -8.5330594476      -10.5024148426  W2        1307            0.0000000000
      3922      1308  TIP3      OH2            20.4110913709        2.3663405524       -0.2966648426  W2        1308            0.0000000000
      3923      1308  TIP3      H1             20.2555213709        3.0447805524       -0.9537348426  W2        1308            0.0000000000
      3924      1308  TIP3      H2             21.3437313709        2.4382705524       -0.0936048426  W2        1308            0.0000000000
      3925      1309  TIP3      OH2             7.9063313709      -13.5158894476       -1.5595248426  W2        1309            0.0000000000
      3926      1309  TIP3      H1              7.6773113709      -13.4566394476       -2.4870248426  W2        1309            0.0000000000
      3927      1309  TIP3      H2              7.4636713709      -14.3073394476       -1.2531148426  W2        1309            0.0000000000
      3928      1310  TIP3      OH2             6.8366613709        0.4248205524       -5.3989448426  W2        1310            0.0000000000
      3929      1310  TIP3      H1              6.0045213709        0.8970905524       -5.3718048426  W2        1310            0.0000000000
      3930      1310  TIP3      H2              7.3824913709        0.9345805524       -5.9976348426  W2        1310            0.0000000000
      3931      1311  TIP3      OH2             6.1250313709        3.0371905524        5.9308551574  W2        1311            0.0000000000
      3932      1311  TIP3      H1              6.6652513709        2.8205905524        6.6907751574  W2        1311            0.0000000000
      3933      1311  TIP3      H2              5.6438313709        2.2317905524        5.7411051574  W2        1311            0.0000000000
      3934      1312  TIP3      OH2            10.7223713709        1.9566305524        7.5512751574  W2        1312            0.0000000000
      3935      1312  TIP3      H1             11.4900913709        1.4977105524        7.8921951574  W2        1312            0.0000000000
      3936      1312  TIP3      H2             10.7009913709        1.7306105524        6.6213951574  W2        1312            0.0000000000
      3937      1313  TIP3      OH2            14.8143313709        1.4646905524      -11.0735448426  W2        1313            0.0000000000
      3938      1313  TIP3      H1             14.1704313709        0.8335505524      -10.7521748426  W2        1313            0.0000000000
      3939      1313  TIP3      H2             15.5761613709        0.9334905524      -11.3051948426  W2        1313            0.0000000000
      3940      1314  TIP3      OH2            17.2992413709        0.3367405524        6.2804251574  W2        1314            0.0000000000
      3941      1314  TIP3      H1             16.9481913709       -0.5199594476        6.5234651574  W2        1314            0.0000000000
      3942      1314  TIP3      H2             18.0255613709        0.4794105524        6.8873251574  W2        1314            0.0000000000
      3943      1315  TIP3      OH2            19.4186213709        1.2816805524      -10.8397448426  W2        1315            0.0000000000
      3944      1315  TIP3      H1             19.7016613709        0.4872005524      -10.3870548426  W2        1315            0.0000000000
      3945      1315  TIP3      H2             20.1584113709        1.5147805524      -11.4006348426  W2        1315            0.0000000000
      3946      1316  TIP3      OH2             6.0319813709       -3.1523994476        6.8852851574  W2        1316            0.0000000000
      3947      1316  TIP3      H1              6.1760313709       -4.0543294476        6.5989551574  W2        1316            0.0000000000
      3948      1316  TIP3      H2              5.2597213709       -2.8661894476        6.3975151574  W2        1316            0.0000000000
      3949      1317  TIP3      OH2            10.3733513709       -2.8088294476      -10.9822548426  W2        1317            0.0000000000
      3950      1317  TIP3      H1             10.4377613709       -3.6028694476      -10.4516148426  W2        1317            0.0000000000
      3951      1317  TIP3      H2             11.0262713709       -2.9275494476      -11.6720548426  W2        1317            0.0000000000
      3952      1318  TIP3      OH2            12.6875913709       -3.1825894476        6.3179251574  W2        1318            0.0000000000
      3953      1318  TIP3      H1             12.3589713709       -2.9117794476        5.4606651574  W2        1318            0.0000000000
      3954      1318  TIP3      H2             12.8394113709       -4.1236094476        6.2304251574  W2        1318            0.0000000000
      3955      1319  TIP3      OH2            15.7256913709       -1.7616594476      -11.2464548426  W2        1319            0.0000000000
      3956      1319  TIP3      H1             15.4571013709       -1.5814494476      -10.3455648426  W2        1319            0.0000000000
      3957      1319  TIP3      H2             15.5192513709       -2.6870394476      -11.3778748426  W2        1319            0.0000000000
      3958      1320  TIP3      OH2            18.4221113709       -3.2668594476        3.7011551574  W2        1320            0.0000000000
      3959      1320  TIP3      H1             19.1675913709       -2.6784894476        3.5815551574  W2        1320            0.0000000000
      3960      1320  TIP3      H2             17.6647913709       -2.6848894476        3.7644651574  W2        1320            0.0000000000
      3961      1321  TIP3      OH2             6.8646313709       -5.9520694476        6.3052151574  W2        1321            0.0000000000
      3962      1321  TIP3      H1              7.2727513709       -6.8094094476        6.1842751574  W2        1321            0.0000000000
      3963      1321  TIP3      H2              6.6043913709       -5.9379394476        7.2262451574  W2        1321            0.0000000000
      3964      1322  TIP3      OH2            11.5227313709       -4.8362094476       -8.6764548426  W2        1322            0.0000000000
      3965      1322  TIP3      H1             11.0629313709       -5.3203794476       -7.9906048426  W2        1322            0.0000000000
      3966      1322  TIP3      H2             11.7776013709       -5.5046694476       -9.3124048426  W2        1322            0.0000000000
      3967      1323  TIP3      OH2            10.8116613709       -6.9434994476        3.6795051574  W2        1323            0.0000000000
      3968      1323  TIP3      H1             10.1932713709       -6.2688394476        3.9599751574  W2        1323            0.0000000000
      3969      1323  TIP3      H2             11.1557813709       -6.6221094476        2.8461251574  W2        1323            0.0000000000
      3970      1324  TIP3      OH2            12.5937713709       -6.5930294476      -10.4141348426  W2        1324            0.0000000000
      3971      1324  TIP3      H1             12.4132713709       -6.7479094476      -11.3413048426  W2        1324            0.0000000000
      3972      1324  TIP3      H2             13.5438213709       -6.4851594476      -10.3693448426  W2        1324            0.0000000000
      3973      1325  TIP3      OH2            15.8314813709       -4.4719694476        6.9569851574  W2        1325            0.0000000000
      3974      1325  TIP3      H1             16.7846013709       -4.3880594476        6.9295851574  W2        1325            0.0000000000
      3975      1325  TIP3      H2             15.6709413709       -5.1837894476        7.5764751574  W2        1325            0.0000000000
      3976      1326  TIP3      OH2            21.9836013709       -4.2386094476      -10.9683248426  W2        1326            0.0000000000
      3977      1326  TIP3      H1             21.7100813709       -4.6630594476      -11.7814948426  W2        1326            0.0000000000
      3978      1326  TIP3      H2             22.0230113709       -3.3071594476      -11.1852848426  W2        1326            0.0000000000
      3979      1327  TIP3      OH2            11.1510313709       -9.5884194476        4.7618151574  W2        1327            0.0000000000
      3980      1327  TIP3      H1             11.3011213709      -10.3172894476        4.1597851574  W2        1327            0.0000000000
      3981      1327  TIP3      H2             11.1532713709       -8.8112494476        4.2030351574  W2        1327            0.0000000000
      3982      1328  TIP3      OH2            11.5636013709      -11.2188394476        2.2545551574  W2        1328            0.0000000000
      3983      1328  TIP3      H1             12.0993513709      -10.7671694476        1.6024851574  W2        1328            0.0000000000
      3984      1328  TIP3      H2             10.7115613709      -11.3268594476        1.8319651574  W2        1328            0.0000000000
      3985      1329  TIP3      OH2            13.1454413709       -5.7792194476        2.4940751574  W2        1329            0.0000000000
      3986      1329  TIP3      H1             13.8959213709       -5.9354694476        1.9208551574  W2        1329            0.0000000000
      3987      1329  TIP3      H2             12.8062713709       -4.9275594476        2.2186251574  W2        1329            0.0000000000
      3988      1330  TIP3      OH2            17.5610613709       -7.9640394476        7.5226051574  W2        1330            0.0000000000
      3989      1330  TIP3      H1             17.7531913709       -8.8950994476        7.4110551574  W2        1330            0.0000000000
      3990      1330  TIP3      H2             18.4186913709       -7.5390894476        7.5121451574  W2        1330            0.0000000000
      3991      1331  TIP3      OH2            18.8777813709       -5.1755194476        5.5998751574  W2        1331            0.0000000000
      3992      1331  TIP3      H1             18.5962813709       -4.4660594476        5.0222551574  W2        1331            0.0000000000
      3993      1331  TIP3      H2             19.8202113709       -5.2482194476        5.4489951574  W2        1331            0.0000000000
      3994      1332  TIP3      OH2             9.6296613709       -8.3900694476        6.6733751574  W2        1332            0.0000000000
      3995      1332  TIP3      H1              8.8625613709       -8.9225894476        6.4631351574  W2        1332            0.0000000000
      3996      1332  TIP3      H2             10.3085613709       -8.7000294476        6.0740051574  W2        1332            0.0000000000
      3997      1333  TIP3      OH2            12.3691513709      -13.7622694476        2.6859151574  W2        1333            0.0000000000
      3998      1333  TIP3      H1             12.2711113709      -12.8159494476        2.5805351574  W2        1333            0.0000000000
      3999      1333  TIP3      H2             11.6267713709      -14.1348894476        2.2102651574  W2        1333            0.0000000000
      4000      1334  TIP3      OH2            13.6332013709       -9.4407294476        6.2497551574  W2        1334            0.0000000000
      4001      1334  TIP3      H1             13.3977413709       -9.6600594476        7.1512451574  W2        1334            0.0000000000
      4002      1334  TIP3      H2             12.8498913709       -9.6476094476        5.7400051574  W2        1334            0.0000000000
      4003      1335  TIP3      OH2            16.3488613709      -10.3133794476        5.3251051574  W2        1335            0.0000000000
      4004      1335  TIP3      H1             15.4014013709      -10.2814094476        5.4574351574  W2        1335            0.0000000000
      4005      1335  TIP3      H2             16.6615313709      -10.9386694476        5.9789251574  W2        1335            0.0000000000
      4006      1336  TIP3      OH2            17.9830113709      -11.6792694476        7.3302951574  W2        1336            0.0000000000
      4007      1336  TIP3      H1             17.8861913709      -12.6315394476        7.3244851574  W2        1336            0.0000000000
      4008      1336  TIP3      H2             17.6613213709      -11.4105894476        8.1908451574  W2        1336            0.0000000000
      4009      1337  TIP3      OH2             7.8099413709      -10.4696894476        6.3778451574  W2        1337            0.0000000000
      4010      1337  TIP3      H1              8.0216813709      -11.1760794476        5.7675951574  W2        1337            0.0000000000
      4011      1337  TIP3      H2              7.6986913709      -10.9070894476        7.2219651574  W2        1337            0.0000000000
      4012      1338  TIP3      OH2            12.5909613709      -14.4685294476        5.3571951574  W2        1338            0.0000000000
      4013      1338  TIP3      H1             13.3028013709      -15.1083094476        5.3431051574  W2        1338            0.0000000000
      4014      1338  TIP3      H2             12.4900013709      -14.2016994476        4.4435051574  W2        1338            0.0000000000
      4015      1339  TIP3      OH2            12.9447113709      -12.7856894476        7.4108251574  W2        1339            0.0000000000
      4016      1339  TIP3      H1             12.8129313709      -13.2613094476        6.5906751574  W2        1339            0.0000000000
      4017      1339  TIP3      H2             12.3454513709      -12.0413294476        7.3555351574  W2        1339            0.0000000000
      4018      1340  TIP3      OH2            12.4909413709        4.0973405524       -9.4127748426  W2        1340            0.0000000000
      4019      1340  TIP3      H1             13.4240113709        4.2552105524       -9.2689348426  W2        1340            0.0000000000
      4020      1340  TIP3      H2             12.2268213709        4.7726405524      -10.0376248426  W2        1340            0.0000000000
      4021      1341  TIP3      OH2             6.0594313709       -1.2662794476       -9.9299648426  W2        1341            0.0000000000
      4022      1341  TIP3      H1              6.9733513709       -1.1873894476       -9.6565748426  W2        1341            0.0000000000
      4023      1341  TIP3      H2              6.0667413709       -1.9533194476      -10.5964048426  W2        1341            0.0000000000
      4024      1342  TIP3      OH2             4.7084913709        4.1265705524       -4.8525748426  W2        1342            0.0000000000
      4025      1342  TIP3      H1              4.0612013709        3.6647405524       -5.3854548426  W2        1342            0.0000000000
      4026      1342  TIP3      H2              5.0629513709        3.4549005524       -4.2699548426  W2        1342            0.0000000000
      4027      1343  TIP3      OH2             5.5784113709        2.2072705524       -3.0479548426  W2        1343            0.0000000000
      4028      1343  TIP3      H1              5.2440913709        1.3270005524       -2.8759348426  W2        1343            0.0000000000
      4029      1343  TIP3      H2              5.8006513709        2.5527705524       -2.1833948426  W2        1343            0.0000000000
      4030      1344  TIP3      OH2            23.1268913709        3.0169105524       -0.0674748426  W2        1344            0.0000000000
      4031      1344  TIP3      H1             23.1055613709        3.2017505524        0.8714651574  W2        1344            0.0000000000
      4032      1344  TIP3      H2             23.8175113709        3.5853105524       -0.4083348426  W2        1344            0.0000000000
      4033      1345  TIP3      OH2            22.6901813709        2.5840205524        2.8544351574  W2        1345            0.0000000000
      4034      1345  TIP3      H1             22.2030513709        1.8484305524        2.4831751574  W2        1345            0.0000000000
      4035      1345  TIP3      H2             23.2394513709        2.1904105524        3.5323751574  W2        1345            0.0000000000
      4036      1346  TIP3      OH2            21.1409113709       -1.6261694476        7.4924651574  W2        1346            0.0000000000
      4037      1346  TIP3      H1             20.2750213709       -1.7311994476        7.8866951574  W2        1346            0.0000000000
      4038      1346  TIP3      H2             21.5175013709       -0.8678394476        7.9389351574  W2        1346            0.0000000000
      4039      1347  TIP3      OH2            22.4418813709       -3.3697994476       -6.9932848426  W2        1347            0.0000000000
      4040      1347  TIP3      H1             23.2920213709       -2.9487094476       -6.8661248426  W2        1347            0.0000000000
      4041      1347  TIP3      H2             22.4473913709       -4.1097894476       -6.3861448426  W2        1347            0.0000000000
      4042      1348  TIP3      OH2            22.8364413709       -5.3160594476       -5.1697148426  W2        1348            0.0000000000
      4043      1348  TIP3      H1             22.1099013709       -5.7957994476       -4.7719548426  W2        1348            0.0000000000
      4044      1348  TIP3      H2             23.4177713709       -5.1105894476       -4.4375548426  W2        1348            0.0000000000
      4045      1349  TIP3      OH2            22.5955613709       -2.5313094476       -0.2219548426  W2        1349            0.0000000000
      4046      1349  TIP3      H1             23.4289813709       -2.9093094476       -0.5025948426  W2        1349            0.0000000000
      4047      1349  TIP3      H2             22.7075913709       -1.5881894476       -0.3410448426  W2        1349            0.0000000000
      4048      1350  TIP3      OH2            21.0817913709        0.3464405524        2.0848851574  W2        1350            0.0000000000
      4049      1350  TIP3      H1             20.4343213709        0.6715905524        2.7104051574  W2        1350            0.0000000000
      4050      1350  TIP3      H2             20.5641913709       -0.0937894476        1.4107151574  W2        1350            0.0000000000
      4051      1351  TIP3      OH2            23.1047513709       -5.4152094476       -8.7785848426  W2        1351            0.0000000000
      4052      1351  TIP3      H1             22.5828613709       -5.0587994476       -9.4974948426  W2        1351            0.0000000000
      4053      1351  TIP3      H2             23.0716713709       -4.7404294476       -8.1004948426  W2        1351            0.0000000000
      4054      1352  TIP3      OH2            21.4536513709       -8.1756494476      -10.2278748426  W2        1352            0.0000000000
      4055      1352  TIP3      H1             21.5500913709       -7.5089494476      -10.9079048426  W2        1352            0.0000000000
      4056      1352  TIP3      H2             21.3136113709       -8.9910194476      -10.7093248426  W2        1352            0.0000000000
      4057      1353  TIP3      OH2            20.6231213709       -6.7954094476       -4.6068448426  W2        1353            0.0000000000
      4058      1353  TIP3      H1             20.4730013709       -7.7405494476       -4.6270648426  W2        1353            0.0000000000
      4059      1353  TIP3      H2             20.2695713709       -6.5142694476       -3.7629348426  W2        1353            0.0000000000
      4060      1354  TIP3      OH2             5.6583613709       -4.7171894476       -0.5964648426  W2        1354            0.0000000000
      4061      1354  TIP3      H1              5.8426513709       -4.7990194476       -1.5321748426  W2        1354            0.0000000000
      4062      1354  TIP3      H2              6.5076513709       -4.8414894476       -0.1728248426  W2        1354            0.0000000000
      4063      1355  TIP3      OH2            21.4794113709       -4.8250794476        5.0319851574  W2        1355            0.0000000000
      4064      1355  TIP3      H1             22.0621413709       -5.5598494476        5.2237051574  W2        1355            0.0000000000
      4065      1355  TIP3      H2             22.0433413709       -4.0530494476        5.0785651574  W2        1355            0.0000000000
      4066      1356  TIP3      OH2            22.9761213709       -6.9224994476        5.7165251574  W2        1356            0.0000000000
      4067      1356  TIP3      H1             22.1127913709       -7.3012894476        5.5509951574  W2        1356            0.0000000000
      4068      1356  TIP3      H2             23.5804913709       -7.6610194476        5.6421051574  W2        1356            0.0000000000
      4069      1357  TIP3      OH2            20.7010313709      -10.7676694476      -11.1103248426  W2        1357            0.0000000000
      4070      1357  TIP3      H1             21.3116113709      -11.1389894476      -10.4735048426  W2        1357            0.0000000000
      4071      1357  TIP3      H2             19.8641813709      -11.1889794476      -10.9143248426  W2        1357            0.0000000000
      4072      1358  TIP3      OH2            20.3336013709       -9.2128294476       -6.1443348426  W2        1358            0.0000000000
      4073      1358  TIP3      H1             20.6133113709      -10.1197894476       -6.0201648426  W2        1358            0.0000000000
      4074      1358  TIP3      H2             21.0927713709       -8.7786794476       -6.5334148426  W2        1358            0.0000000000
      4075      1359  TIP3      OH2            20.9454313709       -8.6310894476       -0.7084448426  W2        1359            0.0000000000
      4076      1359  TIP3      H1             21.8782313709       -8.4190994476       -0.7428448426  W2        1359            0.0000000000
      4077      1359  TIP3      H2             20.7101813709       -8.5298794476        0.2138551574  W2        1359            0.0000000000
      4078      1360  TIP3      OH2            20.9746213709       -7.8945594476        2.0674951574  W2        1360            0.0000000000
      4079      1360  TIP3      H1             20.1317513709       -7.6265194476        2.4334751574  W2        1360            0.0000000000
      4080      1360  TIP3      H2             21.4170513709       -7.0723694476        1.8566051574  W2        1360            0.0000000000
      4081      1361  TIP3      OH2             5.2558413709       -9.4466894476        5.5444151574  W2        1361            0.0000000000
      4082      1361  TIP3      H1              6.1753313709       -9.5688594476        5.7807251574  W2        1361            0.0000000000
      4083      1361  TIP3      H2              4.8062913709      -10.1967194476        5.9337651574  W2        1361            0.0000000000
      4084      1362  TIP3      OH2            23.2577813709      -13.9145394476        7.4209951574  W2        1362            0.0000000000
      4085      1362  TIP3      H1             23.6074813709      -14.5681894476        6.8154651574  W2        1362            0.0000000000
      4086      1362  TIP3      H2             23.4047313709      -13.0771294476        6.9812551574  W2        1362            0.0000000000
      4087      1363  TIP3      OH2            20.9470813709      -11.9498994476       -6.0961348426  W2        1363            0.0000000000
      4088      1363  TIP3      H1             21.1295813709      -12.3987494476       -5.2706348426  W2        1363            0.0000000000
      4089      1363  TIP3      H2             20.3473713709      -12.5344594476       -6.5596748426  W2        1363            0.0000000000
      4090      1364  TIP3      OH2             6.4770913709      -11.1345294476       -1.5642948426  W2        1364            0.0000000000
      4091      1364  TIP3      H1              6.9222513709      -11.9262794476       -1.2623248426  W2        1364            0.0000000000
      4092      1364  TIP3      H2              6.9433913709      -10.4180094476       -1.1337348426  W2        1364            0.0000000000
      4093      1365  TIP3      OH2             4.7811213709       -8.1352294476       -0.4952748426  W2        1365            0.0000000000
      4094      1365  TIP3      H1              5.2731013709       -8.3561794476       -1.2860748426  W2        1365            0.0000000000
      4095      1365  TIP3      H2              5.1432113709       -7.2948894476       -0.2143248426  W2        1365            0.0000000000
      4096      1366  TIP3      OH2            22.7775013709      -11.8050794476        5.7701251574  W2        1366            0.0000000000
      4097      1366  TIP3      H1             21.8600713709      -11.5343694476        5.7344751574  W2        1366            0.0000000000
      4098      1366  TIP3      H2             22.9004413709      -12.3402394476        4.9860951574  W2        1366            0.0000000000
      4099      1367  TIP3      OH2            22.8137013709      -11.8820894476       -9.5681048426  W2        1367            0.0000000000
      4100      1367  TIP3      H1             23.2259613709      -12.6035194476      -10.0433048426  W2        1367            0.0000000000
      4101      1367  TIP3      H2             23.4953513709      -11.2126294476       -9.5096748426  W2        1367            0.0000000000
      4102      1368  TIP3      OH2             5.0947713709      -11.8773194476       -6.4410348426  W2        1368            0.0000000000
      4103      1368  TIP3      H1              4.1696113709      -11.6686594476       -6.5704848426  W2        1368            0.0000000000
      4104      1368  TIP3      H2              5.5487613709      -11.3932394476       -7.1308048426  W2        1368            0.0000000000
      4105      1369  TIP3      OH2            19.8654913709        3.1068505524       -4.4952948426  W2        1369            0.0000000000
      4106      1369  TIP3      H1             20.5177813709        2.7590605524       -5.1033848426  W2        1369            0.0000000000
      4107      1369  TIP3      H2             20.3758713709        3.5951705524       -3.8493248426  W2        1369            0.0000000000
      4108      1370  TIP3      OH2             5.0583113709      -13.1394194476        1.9032151574  W2        1370            0.0000000000
      4109      1370  TIP3      H1              4.3933613709      -13.3853894476        2.5463051574  W2        1370            0.0000000000
      4110      1370  TIP3      H2              4.6154413709      -12.5173794476        1.3260151574  W2        1370            0.0000000000
      4111      1371  TIP3      OH2             7.2502413709        0.0359905524        6.0477951574  W2        1371            0.0000000000
      4112      1371  TIP3      H1              6.4294913709        0.2106405524        5.5872651574  W2        1371            0.0000000000
      4113      1371  TIP3      H2              6.9980213709       -0.0375394476        6.9682351574  W2        1371            0.0000000000
      4114      1372  TIP3      OH2            10.2045313709        1.0101105524        2.3061951574  W2        1372            0.0000000000
      4115      1372  TIP3      H1              9.7796413709        1.8199605524        2.0236551574  W2        1372            0.0000000000
      4116      1372  TIP3      H2             11.1088113709        1.0955205524        2.0041751574  W2        1372            0.0000000000
      4117      1373  TIP3      OH2            14.5156713709        2.4091105524        5.2655651574  W2        1373            0.0000000000
      4118      1373  TIP3      H1             14.7004213709        2.0757205524        6.1435951574  W2        1373            0.0000000000
      4119      1373  TIP3      H2             15.3621213709        2.7189705524        4.9434851574  W2        1373            0.0000000000
      4120      1374  TIP3      OH2            16.8607113709        3.6950005524        4.5097051574  W2        1374            0.0000000000
      4121      1374  TIP3      H1             17.5376013709        3.0622305524        4.2696251574  W2        1374            0.0000000000
      4122      1374  TIP3      H2             17.1825913709        4.0960505524        5.3170351574  W2        1374            0.0000000000
      4123      1375  TIP3      OH2            21.7780913709      -13.7154494476        3.5892051574  W2        1375            0.0000000000
      4124      1375  TIP3      H1             20.9654413709      -13.3904194476        3.2016751574  W2        1375            0.0000000000
      4125      1375  TIP3      H2             22.0109413709      -14.4755994476        3.0561151574  W2        1375            0.0000000000
      4126      1376  TIP3      OH2             7.6062013709        4.2665005524        2.3537251574  W2        1376            0.0000000000
      4127      1376  TIP3      H1              6.8858413709        4.7066005524        1.9024951574  W2        1376            0.0000000000
      4128      1376  TIP3      H2              7.2406013709        4.0159705524        3.2021251574  W2        1376            0.0000000000
      4129      1377  TIP3      OH2            10.0734613709        3.8668905524        1.3834451574  W2        1377            0.0000000000
      4130      1377  TIP3      H1              9.2086813709        3.9387405524        1.7874551574  W2        1377            0.0000000000
      4131      1377  TIP3      H2             10.0183613709        4.4136205524        0.5996951574  W2        1377            0.0000000000
      4132      1378  TIP3      OH2            14.7840213709        3.7547805524        0.5590451574  W2        1378            0.0000000000
      4133      1378  TIP3      H1             14.3274213709        4.2837505524       -0.0951148426  W2        1378            0.0000000000
      4134      1378  TIP3      H2             14.9468213709        4.3579205524        1.2842751574  W2        1378            0.0000000000
      4135      1379  TIP3      OH2            17.1116513709        2.6327405524        1.5040751574  W2        1379            0.0000000000
      4136      1379  TIP3      H1             16.2070213709        2.7977605524        1.2382851574  W2        1379            0.0000000000
      4137      1379  TIP3      H2             17.5405113709        3.4859605524        1.4384151574  W2        1379            0.0000000000
      4138      1380  TIP3      OH2            19.7158413709        4.2026505524        1.7988551574  W2        1380            0.0000000000
      4139      1380  TIP3      H1             19.5340413709        5.1185405524        1.5883451574  W2        1380            0.0000000000
      4140      1380  TIP3      H2             19.8926213709        3.7923605524        0.9523151574  W2        1380            0.0000000000
      4141      1381  TIP3      OH2             7.0210113709        2.8897505524       -0.7360948426  W2        1381            0.0000000000
      4142      1381  TIP3      H1              7.0026113709        2.4642605524        0.1211351574  W2        1381            0.0000000000
      4143      1381  TIP3      H2              7.8258013709        2.5712505524       -1.1448748426  W2        1381            0.0000000000
      4144      1382  TIP3      OH2             9.1623213709        1.5996205524       -2.0811048426  W2        1382            0.0000000000
      4145      1382  TIP3      H1              8.9433913709        0.6833605524       -1.9115048426  W2        1382            0.0000000000
      4146      1382  TIP3      H2              9.9865413709        1.7396605524       -1.6149648426  W2        1382            0.0000000000
      4147      1383  TIP3      OH2            11.6995713709        2.0695505524       -1.2323048426  W2        1383            0.0000000000
      4148      1383  TIP3      H1             11.9121413709        1.1814505524       -1.5192148426  W2        1383            0.0000000000
      4149      1383  TIP3      H2             11.7640813709        2.0353205524       -0.2779048426  W2        1383            0.0000000000
      4150      1384  TIP3      OH2            15.2079413709      -12.2663894476       -2.0879748426  W2        1384            0.0000000000
      4151      1384  TIP3      H1             14.5336213709      -12.8958294476       -1.8323948426  W2        1384            0.0000000000
      4152      1384  TIP3      H2             15.7718613709      -12.7504994476       -2.6911848426  W2        1384            0.0000000000
      4153      1385  TIP3      OH2            20.3506613709      -14.1589894476       -1.9752648426  W2        1385            0.0000000000
      4154      1385  TIP3      H1             20.9544213709      -13.6114494476       -2.4771648426  W2        1385            0.0000000000
      4155      1385  TIP3      H2             19.4808613709      -13.8399494476       -2.2158548426  W2        1385            0.0000000000
      4156      1386  TIP3      OH2            22.0777013709      -13.0201194476       -3.6421748426  W2        1386            0.0000000000
      4157      1386  TIP3      H1             22.6894513709      -13.5345494476       -4.1688148426  W2        1386            0.0000000000
      4158      1386  TIP3      H2             22.4600413709      -12.1429094476       -3.6187348426  W2        1386            0.0000000000
      4159      1387  TIP3      OH2             7.5346913709      -13.6323594476       -4.2659848426  W2        1387            0.0000000000
      4160      1387  TIP3      H1              6.7576713709      -13.8668694476       -4.7733948426  W2        1387            0.0000000000
      4161      1387  TIP3      H2              8.0650513709      -14.4291494476       -4.2571848426  W2        1387            0.0000000000
      4162      1388  TIP3      OH2             6.3710313709      -13.8345494476       -8.4623748426  W2        1388            0.0000000000
      4163      1388  TIP3      H1              6.8101013709      -13.2234994476       -9.0540248426  W2        1388            0.0000000000
      4164      1388  TIP3      H2              5.7372713709      -13.2961394476       -7.9883748426  W2        1388            0.0000000000
      4165      1389  TIP3      OH2            12.1139513709      -13.7056494476       -4.4526748426  W2        1389            0.0000000000
      4166      1389  TIP3      H1             12.9882913709      -13.3172194476       -4.4822448426  W2        1389            0.0000000000
      4167      1389  TIP3      H2             11.9780313709      -13.9208694476       -3.5299548426  W2        1389            0.0000000000
      4168      1390  TIP3      OH2            17.6707913709      -13.6756694476       -2.8035048426  W2        1390            0.0000000000
      4169      1390  TIP3      H1             17.7469513709      -13.5805094476       -3.7529048426  W2        1390            0.0000000000
      4170      1390  TIP3      H2             17.3957113709      -14.5833794476       -2.6745948426  W2        1390            0.0000000000
      4171      1391  TIP3      OH2            19.0240513709      -13.6498894476       -7.1110048426  W2        1391            0.0000000000
      4172      1391  TIP3      H1             18.3211613709      -13.0349694476       -7.3208648426  W2        1391            0.0000000000
      4173      1391  TIP3      H2             18.5791913709      -14.4872194476       -6.9799148426  W2        1391            0.0000000000
      4174      1392  TIP3      OH2             6.2719813709        2.1136705524       -7.5648648426  W2        1392            0.0000000000
      4175      1392  TIP3      H1              5.5869713709        2.0755605524       -8.2323548426  W2        1392            0.0000000000
      4176      1392  TIP3      H2              6.2757013709        3.0264305524       -7.2766548426  W2        1392            0.0000000000
      4177      1393  TIP3      OH2             8.2319413709      -11.9183994476      -10.0199648426  W2        1393            0.0000000000
      4178      1393  TIP3      H1              8.7232813709      -12.5481594476      -10.5474148426  W2        1393            0.0000000000
      4179      1393  TIP3      H2              8.8555713709      -11.6224594476       -9.3568448426  W2        1393            0.0000000000
      4180      1394  TIP3      OH2            13.2579513709      -11.6252494476       -7.5629148426  W2        1394            0.0000000000
      4181      1394  TIP3      H1             13.4360813709      -12.2719294476       -6.8800548426  W2        1394            0.0000000000
      4182      1394  TIP3      H2             13.2045713709      -10.7914794476       -7.0958048426  W2        1394            0.0000000000
      4183      1395  TIP3      OH2            15.1363313709        3.3231605524       -9.1672448426  W2        1395            0.0000000000
      4184      1395  TIP3      H1             16.0023513709        3.6899005524       -9.3454248426  W2        1395            0.0000000000
      4185      1395  TIP3      H2             14.8896113709        2.8839605524       -9.9811648426  W2        1395            0.0000000000
      4186      1396  TIP3      OH2            21.8452913709        2.8861905524       -6.4881348426  W2        1396            0.0000000000
      4187      1396  TIP3      H1             21.6510013709        2.1384005524       -7.0531748426  W2        1396            0.0000000000
      4188      1396  TIP3      H2             21.8063013709        3.6442005524       -7.0713448426  W2        1396            0.0000000000
      4189      1397  TIP3      OH2             7.4924913709      -13.1181694476        5.2516351574  W2        1397            0.0000000000
      4190      1397  TIP3      H1              7.1263113709      -13.8839094476        5.6941051574  W2        1397            0.0000000000
      4191      1397  TIP3      H2              8.4053413709      -13.0891494476        5.5381451574  W2        1397            0.0000000000
      4192      1398  TIP3      OH2             9.4655713709      -13.7677294476        6.7873451574  W2        1398            0.0000000000
      4193      1398  TIP3      H1             10.3639313709      -14.0417094476        6.6026851574  W2        1398            0.0000000000
      4194      1398  TIP3      H2              9.0788813709      -14.5101294476        7.2516051574  W2        1398            0.0000000000
      4195      1399  TIP3      OH2             8.0901013709        3.0337505524      -10.5396548426  W2        1399            0.0000000000
      4196      1399  TIP3      H1              7.8225613709        3.3200405524       -9.6663448426  W2        1399            0.0000000000
      4197      1399  TIP3      H2              8.8613613709        2.4876705524      -10.3874048426  W2        1399            0.0000000000
      4198      1400  TIP3      OH2            17.8868013709      -14.4351994476        6.9696251574  W2        1400            0.0000000000
      4199      1400  TIP3      H1             17.9635213709      -14.8611294476        7.8233951574  W2        1400            0.0000000000
      4200      1400  TIP3      H2             18.7804613709      -14.4217294476        6.6269751574  W2        1400            0.0000000000
      4201      1401  TIP3      OH2            21.0629113709        1.6374305524        5.6620451574  W2        1401            0.0000000000
      4202      1401  TIP3      H1             20.2811013709        1.4512305524        5.1421051574  W2        1401            0.0000000000
      4203      1401  TIP3      H2             20.9909013709        2.5668605524        5.8792951574  W2        1401            0.0000000000
      4204      1402  TIP3      OH2            26.7705813709       -5.6068494476        0.7045751574  W2        1402            0.0000000000
      4205      1402  TIP3      H1             26.8117913709       -6.2325194476        1.4278151574  W2        1402            0.0000000000
      4206      1402  TIP3      H2             27.4733513709       -4.9829894476        0.8866151574  W2        1402            0.0000000000
      4207      1403  TIP3      OH2            27.6938913709       -1.1569594476       -0.7605148426  W2        1403            0.0000000000
      4208      1403  TIP3      H1             27.3244113709       -1.9589094476       -1.1300848426  W2        1403            0.0000000000
      4209      1403  TIP3      H2             28.6350013709       -1.3254694476       -0.7141748426  W2        1403            0.0000000000
      4210      1404  TIP3      OH2            24.3039413709       -7.4966994476       -5.3676348426  W2        1404            0.0000000000
      4211      1404  TIP3      H1             23.8562813709       -6.6508294476       -5.3859848426  W2        1404            0.0000000000
      4212      1404  TIP3      H2             23.7430613709       -8.0762794476       -5.8831248426  W2        1404            0.0000000000
      4213      1405  TIP3      OH2            25.0145513709       -5.3347394476       -3.2418348426  W2        1405            0.0000000000
      4214      1405  TIP3      H1             25.2279013709       -6.1045794476       -2.7145348426  W2        1405            0.0000000000
      4215      1405  TIP3      H2             25.7523113709       -5.2450694476       -3.8450748426  W2        1405            0.0000000000
      4216      1406  TIP3      OH2            32.7915213709       -2.7889194476       -0.4823148426  W2        1406            0.0000000000
      4217      1406  TIP3      H1             33.0953113709       -3.4747794476       -1.0769048426  W2        1406            0.0000000000
      4218      1406  TIP3      H2             33.5129213709       -2.6700494476        0.1354851574  W2        1406            0.0000000000
      4219      1407  TIP3      OH2            29.0870513709      -10.2930394476       -2.8823548426  W2        1407            0.0000000000
      4220      1407  TIP3      H1             29.1301613709       -9.4331894476       -3.3007248426  W2        1407            0.0000000000
      4221      1407  TIP3      H2             28.6294613709      -10.8455694476       -3.5160348426  W2        1407            0.0000000000
      4222      1408  TIP3      OH2            25.7072013709       -7.8964594476       -2.1202148426  W2        1408            0.0000000000
      4223      1408  TIP3      H1             26.3608613709       -8.4462894476       -1.6882048426  W2        1408            0.0000000000
      4224      1408  TIP3      H2             25.7311313709       -8.1705594476       -3.0370148426  W2        1408            0.0000000000
      4225      1409  TIP3      OH2            30.8636513709       -6.3463294476       -2.9050648426  W2        1409            0.0000000000
      4226      1409  TIP3      H1             31.4797513709       -6.8727894476       -2.3956648426  W2        1409            0.0000000000
      4227      1409  TIP3      H2             30.2775313709       -6.9864594476       -3.3087048426  W2        1409            0.0000000000
      4228      1410  TIP3      OH2            27.8972413709      -11.3751994476        1.1917251574  W2        1410            0.0000000000
      4229      1410  TIP3      H1             27.6784113709      -10.8451394476        0.4253251574  W2        1410            0.0000000000
      4230      1410  TIP3      H2             27.2293313709      -11.1486494476        1.8388651574  W2        1410            0.0000000000
      4231      1411  TIP3      OH2            30.4663813709       -3.6996294476        1.4790951574  W2        1411            0.0000000000
      4232      1411  TIP3      H1             29.7262913709       -3.1014794476        1.5826151574  W2        1411            0.0000000000
      4233      1411  TIP3      H2             31.1803313709       -3.1456694476        1.1634551574  W2        1411            0.0000000000
      4234      1412  TIP3      OH2            27.4909713709       -9.4830194476       -0.8560548426  W2        1412            0.0000000000
      4235      1412  TIP3      H1             28.1046013709       -8.8502594476       -0.4828148426  W2        1412            0.0000000000
      4236      1412  TIP3      H2             28.0030413709       -9.9555194476       -1.5123648426  W2        1412            0.0000000000
      4237      1413  TIP3      OH2            28.8738113709       -1.7353294476        2.2662451574  W2        1413            0.0000000000
      4238      1413  TIP3      H1             28.8685713709       -0.8559794476        1.8881751574  W2        1413            0.0000000000
      4239      1413  TIP3      H2             28.0202213709       -1.8189194476        2.6912351574  W2        1413            0.0000000000
      4240      1414  TIP3      OH2            24.9949013709       -2.0645394476       -6.9518248426  W2        1414            0.0000000000
      4241      1414  TIP3      H1             24.7229913709       -1.8354394476       -7.8405348426  W2        1414            0.0000000000
      4242      1414  TIP3      H2             25.0404713709       -1.2266594476       -6.4912948426  W2        1414            0.0000000000
      4243      1415  TIP3      OH2            31.9237113709      -14.0696894476       -1.3557848426  W2        1415            0.0000000000
      4244      1415  TIP3      H1             31.8061313709      -15.0180894476       -1.4099548426  W2        1415            0.0000000000
      4245      1415  TIP3      H2             31.0687213709      -13.7370794476       -1.0826748426  W2        1415            0.0000000000
      4246      1416  TIP3      OH2            29.2413413709       -4.3921794476       -4.0211148426  W2        1416            0.0000000000
      4247      1416  TIP3      H1             28.9108613709       -4.7628394476       -4.8394148426  W2        1416            0.0000000000
      4248      1416  TIP3      H2             29.8297513709       -5.0627794476       -3.6742848426  W2        1416            0.0000000000
      4249      1417  TIP3      OH2            30.6080913709       -0.9641194476       -1.3398948426  W2        1417            0.0000000000
      4250      1417  TIP3      H1             30.5132213709       -1.5428094476       -2.0964348426  W2        1417            0.0000000000
      4251      1417  TIP3      H2             31.3374513709       -1.3355494476       -0.8436148426  W2        1417            0.0000000000
      4252      1418  TIP3      OH2            29.6078913709       -5.6236194476       -0.3876148426  W2        1418            0.0000000000
      4253      1418  TIP3      H1             30.1731413709       -5.5021994476       -1.1504948426  W2        1418            0.0000000000
      4254      1418  TIP3      H2             29.9267813709       -4.9861194476        0.2512351574  W2        1418            0.0000000000
      4255      1419  TIP3      OH2            30.4879613709       -1.2243494476        4.3295751574  W2        1419            0.0000000000
      4256      1419  TIP3      H1             30.1767113709       -0.4420294476        4.7848951574  W2        1419            0.0000000000
      4257      1419  TIP3      H2             29.8379813709       -1.3774394476        3.6437751574  W2        1419            0.0000000000
      4258      1420  TIP3      OH2            27.4079513709       -5.0262394476        3.5581451574  W2        1420            0.0000000000
      4259      1420  TIP3      H1             27.4782713709       -4.3755594476        4.2566451574  W2        1420            0.0000000000
      4260      1420  TIP3      H2             26.5171713709       -4.9234894476        3.2232351574  W2        1420            0.0000000000
      4261      1421  TIP3      OH2            28.7275513709        0.8471505524        5.0929551574  W2        1421            0.0000000000
      4262      1421  TIP3      H1             28.7350813709        0.7111205524        4.1455051574  W2        1421            0.0000000000
      4263      1421  TIP3      H2             27.8115913709        0.7299605524        5.3449551574  W2        1421            0.0000000000
      4264      1422  TIP3      OH2            28.2316113709       -5.3227494476       -6.4318348426  W2        1422            0.0000000000
      4265      1422  TIP3      H1             27.9397413709       -4.5545794476       -6.9227048426  W2        1422            0.0000000000
      4266      1422  TIP3      H2             27.5571313709       -5.9821294476       -6.5946948426  W2        1422            0.0000000000
      4267      1423  TIP3      OH2            24.3246213709       -2.9598294476        2.3831451574  W2        1423            0.0000000000
      4268      1423  TIP3      H1             23.8234613709       -2.9878894476        1.5681151574  W2        1423            0.0000000000
      4269      1423  TIP3      H2             24.3299913709       -3.8655094476        2.6928751574  W2        1423            0.0000000000
      4270      1424  TIP3      OH2            24.0748913709       -0.1794494476       -0.7328348426  W2        1424            0.0000000000
      4271      1424  TIP3      H1             25.0209513709       -0.3237494476       -0.7518848426  W2        1424            0.0000000000
      4272      1424  TIP3      H2             23.9625213709        0.6048305524       -0.1957148426  W2        1424            0.0000000000
      4273      1425  TIP3      OH2            27.3191013709        2.6215105524       -4.5873648426  W2        1425            0.0000000000
      4274      1425  TIP3      H1             27.4711413709        2.2735505524       -3.7087148426  W2        1425            0.0000000000
      4275      1425  TIP3      H2             26.4681413709        2.2652405524       -4.8426448426  W2        1425            0.0000000000
      4276      1426  TIP3      OH2            26.5736713709       -1.6362894476        3.4264251574  W2        1426            0.0000000000
      4277      1426  TIP3      H1             26.7898013709       -1.9977294476        4.2860051574  W2        1426            0.0000000000
      4278      1426  TIP3      H2             25.7181413709       -2.0109094476        3.2167751574  W2        1426            0.0000000000
      4279      1427  TIP3      OH2            29.1924713709      -13.1662394476       -0.5781548426  W2        1427            0.0000000000
      4280      1427  TIP3      H1             28.3308413709      -13.2534194476       -0.9858648426  W2        1427            0.0000000000
      4281      1427  TIP3      H2             29.1700413709      -12.3102294476       -0.1503948426  W2        1427            0.0000000000
      4282      1428  TIP3      OH2            29.2834813709       -8.2007894476        0.5168651574  W2        1428            0.0000000000
      4283      1428  TIP3      H1             28.6416913709       -8.2410594476        1.2258751574  W2        1428            0.0000000000
      4284      1428  TIP3      H2             29.3206813709       -7.2743194476        0.2791651574  W2        1428            0.0000000000
      4285      1429  TIP3      OH2            29.2803913709       -7.9797794476       -4.5711348426  W2        1429            0.0000000000
      4286      1429  TIP3      H1             28.3876813709       -8.3201694476       -4.6297548426  W2        1429            0.0000000000
      4287      1429  TIP3      H2             29.7310513709       -8.3566894476       -5.3268148426  W2        1429            0.0000000000
      4288      1430  TIP3      OH2            27.0335313709       -7.8804394476        2.3840651574  W2        1430            0.0000000000
      4289      1430  TIP3      H1             26.9954713709       -7.4802794476        3.2527751574  W2        1430            0.0000000000
      4290      1430  TIP3      H2             26.5426413709       -8.6971994476        2.4743551574  W2        1430            0.0000000000
      4291      1431  TIP3      OH2            30.3992713709      -10.5062094476      -10.8173348426  W2        1431            0.0000000000
      4292      1431  TIP3      H1             29.9683413709      -10.9511994476      -10.0875948426  W2        1431            0.0000000000
      4293      1431  TIP3      H2             29.6811413709      -10.1345794476      -11.3295848426  W2        1431            0.0000000000
      4294      1432  TIP3      OH2            23.6416113709      -10.7642594476       -3.7654648426  W2        1432            0.0000000000
      4295      1432  TIP3      H1             24.2723813709      -10.7930494476       -3.0460748426  W2        1432            0.0000000000
      4296      1432  TIP3      H2             24.0910413709      -11.1893894476       -4.4958748426  W2        1432            0.0000000000
      4297      1433  TIP3      OH2            24.9158213709      -10.0180594476       -8.3414248426  W2        1433            0.0000000000
      4298      1433  TIP3      H1             25.3899913709       -9.4270694476       -8.9263348426  W2        1433            0.0000000000
      4299      1433  TIP3      H2             24.1984613709       -9.4877694476       -7.9944148426  W2        1433            0.0000000000
      4300      1434  TIP3      OH2            31.8619213709      -10.5520294476       -3.4847248426  W2        1434            0.0000000000
      4301      1434  TIP3      H1             30.9510313709      -10.4953494476       -3.1961248426  W2        1434            0.0000000000
      4302      1434  TIP3      H2             32.3672113709      -10.6124794476       -2.6740048426  W2        1434            0.0000000000
      4303      1435  TIP3      OH2            26.6902613709       -8.9233994476       -4.6579648426  W2        1435            0.0000000000
      4304      1435  TIP3      H1             25.8010613709       -8.8238494476       -4.9980048426  W2        1435            0.0000000000
      4305      1435  TIP3      H2             26.9867513709       -9.7650994476       -5.0041748426  W2        1435            0.0000000000
      4306      1436  TIP3      OH2            30.3434413709       -8.9231394476       -7.0015048426  W2        1436            0.0000000000
      4307      1436  TIP3      H1             31.2749913709       -8.7941394476       -6.8231948426  W2        1436            0.0000000000
      4308      1436  TIP3      H2             30.1284713709       -8.2537094476       -7.6510348426  W2        1436            0.0000000000
      4309      1437  TIP3      OH2            29.0174613709       -7.7289194476       -9.4348948426  W2        1437            0.0000000000
      4310      1437  TIP3      H1             28.4749713709       -8.1085394476      -10.1261348426  W2        1437            0.0000000000
      4311      1437  TIP3      H2             29.8509513709       -7.5344494476       -9.8634848426  W2        1437            0.0000000000
      4312      1438  TIP3      OH2            27.1526013709       -3.1717294476        5.6642651574  W2        1438            0.0000000000
      4313      1438  TIP3      H1             27.8848413709       -2.9171394476        6.2257151574  W2        1438            0.0000000000
      4314      1438  TIP3      H2             26.3724713709       -2.9671894476        6.1798051574  W2        1438            0.0000000000
      4315      1439  TIP3      OH2            33.1818913709       -7.7647294476       -1.5977648426  W2        1439            0.0000000000
      4316      1439  TIP3      H1             33.7462313709       -8.3110694476       -2.1448048426  W2        1439            0.0000000000
      4317      1439  TIP3      H2             33.0342313709       -8.2865394476       -0.8090048426  W2        1439            0.0000000000
      4318      1440  TIP3      OH2            28.1838613709      -11.6281194476       -5.1792848426  W2        1440            0.0000000000
      4319      1440  TIP3      H1             27.8668113709      -12.5305894476       -5.2147448426  W2        1440            0.0000000000
      4320      1440  TIP3      H2             28.9652713709      -11.6263794476       -5.7321248426  W2        1440            0.0000000000
      4321      1441  TIP3      OH2            31.8084813709       -9.3761194476        0.8162751574  W2        1441            0.0000000000
      4322      1441  TIP3      H1             30.9730113709       -8.9221694476        0.9265151574  W2        1441            0.0000000000
      4323      1441  TIP3      H2             32.3325413709       -9.1002694476        1.5682651574  W2        1441            0.0000000000
      4324      1442  TIP3      OH2            32.3527413709       -3.1633494476       -7.4990848426  W2        1442            0.0000000000
      4325      1442  TIP3      H1             31.6078413709       -3.6708194476       -7.8212948426  W2        1442            0.0000000000
      4326      1442  TIP3      H2             32.2184613709       -3.1145494476       -6.5526048426  W2        1442            0.0000000000
      4327      1443  TIP3      OH2            27.4775713709       -3.8683494476       -1.7292948426  W2        1443            0.0000000000
      4328      1443  TIP3      H1             28.2222913709       -3.8707794476       -2.3306448426  W2        1443            0.0000000000
      4329      1443  TIP3      H2             27.5552313709       -4.6919694476       -1.2477848426  W2        1443            0.0000000000
      4330      1444  TIP3      OH2            24.4855413709       -5.4076594476        3.5855551574  W2        1444            0.0000000000
      4331      1444  TIP3      H1             24.7084013709       -5.8256994476        4.4173051574  W2        1444            0.0000000000
      4332      1444  TIP3      H2             23.8835513709       -6.0201594476        3.1628351574  W2        1444            0.0000000000
      4333      1445  TIP3      OH2            31.5020313709       -5.8906694476        5.7985251574  W2        1445            0.0000000000
      4334      1445  TIP3      H1             31.2061113709       -6.0563694476        4.9034351574  W2        1445            0.0000000000
      4335      1445  TIP3      H2             32.4335513709       -6.1106394476        5.7879151574  W2        1445            0.0000000000
      4336      1446  TIP3      OH2            29.8525113709       -0.3505294476       -4.3251448426  W2        1446            0.0000000000
      4337      1446  TIP3      H1             30.3797313709        0.4229105524       -4.5252648426  W2        1446            0.0000000000
      4338      1446  TIP3      H2             28.9723613709       -0.1256094476       -4.6267448426  W2        1446            0.0000000000
      4339      1447  TIP3      OH2            25.6072813709       -5.4881194476       -9.7379048426  W2        1447            0.0000000000
      4340      1447  TIP3      H1             26.2232713709       -4.8613994476       -9.3584248426  W2        1447            0.0000000000
      4341      1447  TIP3      H2             24.7455413709       -5.1721394476       -9.4662548426  W2        1447            0.0000000000
      4342      1448  TIP3      OH2            31.2797413709       -2.6875394476       -4.7487148426  W2        1448            0.0000000000
      4343      1448  TIP3      H1             31.0387413709       -1.7620994476       -4.7071848426  W2        1448            0.0000000000
      4344      1448  TIP3      H2             30.5391013709       -3.1464094476       -4.3523248426  W2        1448            0.0000000000
      4345      1449  TIP3      OH2            31.7944013709        1.4618205524        1.5663951574  W2        1449            0.0000000000
      4346      1449  TIP3      H1             32.1568713709        2.3163805524        1.3328351574  W2        1449            0.0000000000
      4347      1449  TIP3      H2             32.3259213709        1.1699805524        2.3070251574  W2        1449            0.0000000000
      4348      1450  TIP3      OH2            29.9628213709        2.3342205524       -5.2034948426  W2        1450            0.0000000000
      4349      1450  TIP3      H1             29.0128713709        2.4399605524       -5.1521648426  W2        1450            0.0000000000
      4350      1450  TIP3      H2             30.3146313709        3.1549605524       -4.8587448426  W2        1450            0.0000000000
      4351      1451  TIP3      OH2            26.1194913709      -10.6543894476        3.1436951574  W2        1451            0.0000000000
      4352      1451  TIP3      H1             25.2267213709      -10.3158494476        3.0760951574  W2        1451            0.0000000000
      4353      1451  TIP3      H2             26.0207713709      -11.5097794476        3.5617751574  W2        1451            0.0000000000
      4354      1452  TIP3      OH2            25.7706913709        1.1500505524        1.5786351574  W2        1452            0.0000000000
      4355      1452  TIP3      H1             25.9877213709        0.2182905524        1.5476051574  W2        1452            0.0000000000
      4356      1452  TIP3      H2             26.0170413709        1.4245505524        2.4619151574  W2        1452            0.0000000000
      4357      1453  TIP3      OH2            31.6321513709       -0.3984494476      -11.2121448426  W2        1453            0.0000000000
      4358      1453  TIP3      H1             31.8711313709       -1.1466394476      -11.7592548426  W2        1453            0.0000000000
      4359      1453  TIP3      H2             31.3632813709       -0.7862794476      -10.3793648426  W2        1453            0.0000000000
      4360      1454  TIP3      OH2            30.5692113709       -0.8280694476       -8.7558848426  W2        1454            0.0000000000
      4361      1454  TIP3      H1             30.7160113709       -1.3480894476       -7.9657948426  W2        1454            0.0000000000
      4362      1454  TIP3      H2             30.5663813709        0.0786905524       -8.4492948426  W2        1454            0.0000000000
      4363      1455  TIP3      OH2            27.0223213709       -3.5757394476       -8.2453448426  W2        1455            0.0000000000
      4364      1455  TIP3      H1             26.3362513709       -3.2234894476       -7.6783748426  W2        1455            0.0000000000
      4365      1455  TIP3      H2             27.5451113709       -2.8127794476       -8.4919148426  W2        1455            0.0000000000
      4366      1456  TIP3      OH2            32.8383113709       -9.5333094476       -6.0343748426  W2        1456            0.0000000000
      4367      1456  TIP3      H1             33.6505713709       -9.0289894476       -5.9882048426  W2        1456            0.0000000000
      4368      1456  TIP3      H2             32.5936113709       -9.6783394476       -5.1204148426  W2        1456            0.0000000000
      4369      1457  TIP3      OH2            30.6452413709        1.9130105524       -8.0247748426  W2        1457            0.0000000000
      4370      1457  TIP3      H1             30.8061113709        2.7127605524       -8.5255148426  W2        1457            0.0000000000
      4371      1457  TIP3      H2             30.4480213709        2.2196105524       -7.1397148426  W2        1457            0.0000000000
      4372      1458  TIP3      OH2            29.3796813709      -11.3890694476       -8.4090148426  W2        1458            0.0000000000
      4373      1458  TIP3      H1             29.2961613709      -10.5007594476       -8.0623748426  W2        1458            0.0000000000
      4374      1458  TIP3      H2             30.2697113709      -11.6543994476       -8.1773348426  W2        1458            0.0000000000
      4375      1459  TIP3      OH2            27.6382113709       -0.9618494476       -9.3485648426  W2        1459            0.0000000000
      4376      1459  TIP3      H1             28.2303613709       -0.2623694476       -9.0723248426  W2        1459            0.0000000000
      4377      1459  TIP3      H2             28.0975113709       -1.3948994476      -10.0681048426  W2        1459            0.0000000000
      4378      1460  TIP3      OH2            25.9541313709       -8.2975494476      -10.2326248426  W2        1460            0.0000000000
      4379      1460  TIP3      H1             25.9093913709       -7.3582394476      -10.0539248426  W2        1460            0.0000000000
      4380      1460  TIP3      H2             25.0664513709       -8.5330594476      -10.5024148426  W2        1460            0.0000000000
      4381      1461  TIP3      OH2            26.7623313709      -13.5158894476       -1.5595248426  W2        1461            0.0000000000
      4382      1461  TIP3      H1             26.5333113709      -13.4566394476       -2.4870248426  W2        1461            0.0000000000
      4383      1461  TIP3      H2             26.3196713709      -14.3073394476       -1.2531148426  W2        1461            0.0000000000
      4384      1462  TIP3      OH2            25.6926613709        0.4248205524       -5.3989448426  W2        1462            0.0000000000
      4385      1462  TIP3      H1             24.8605213709        0.8970905524       -5.3718048426  W2        1462            0.0000000000
      4386      1462  TIP3      H2             26.2384913709        0.9345805524       -5.9976348426  W2        1462            0.0000000000
      4387      1463  TIP3      OH2            24.9810313709        3.0371905524        5.9308551574  W2        1463            0.0000000000
      4388      1463  TIP3      H1             25.5212513709        2.8205905524        6.6907751574  W2        1463            0.0000000000
      4389      1463  TIP3      H2             24.4998313709        2.2317905524        5.7411051574  W2        1463            0.0000000000
      4390      1464  TIP3      OH2            29.5783713709        1.9566305524        7.5512751574  W2        1464            0.0000000000
      4391      1464  TIP3      H1             30.3460913709        1.4977105524        7.8921951574  W2        1464            0.0000000000
      4392      1464  TIP3      H2             29.5569913709        1.7306105524        6.6213951574  W2        1464            0.0000000000
      4393      1465  TIP3      OH2            24.8879813709       -3.1523994476        6.8852851574  W2        1465            0.0000000000
      4394      1465  TIP3      H1             25.0320313709       -4.0543294476        6.5989551574  W2        1465            0.0000000000
      4395      1465  TIP3      H2             24.1157213709       -2.8661894476        6.3975151574  W2        1465            0.0000000000
      4396      1466  TIP3      OH2            29.2293513709       -2.8088294476      -10.9822548426  W2        1466            0.0000000000
      4397      1466  TIP3      H1             29.2937613709       -3.6028694476      -10.4516148426  W2        1466            0.0000000000
      4398      1466  TIP3      H2             29.8822713709       -2.9275494476      -11.6720548426  W2        1466            0.0000000000
      4399      1467  TIP3      OH2            31.5435913709       -3.1825894476        6.3179251574  W2        1467            0.0000000000
      4400      1467  TIP3      H1             31.2149713709       -2.9117794476        5.4606651574  W2        1467            0.0000000000
      4401      1467  TIP3      H2             31.6954113709       -4.1236094476        6.2304251574  W2        1467            0.0000000000
      4402      1468  TIP3      OH2            25.7206313709       -5.9520694476        6.3052151574  W2        1468            0.0000000000
      4403      1468  TIP3      H1             26.1287513709       -6.8094094476        6.1842751574  W2        1468            0.0000000000
      4404      1468  TIP3      H2             25.4603913709       -5.9379394476        7.2262451574  W2        1468            0.0000000000
      4405      1469  TIP3      OH2            30.3787313709       -4.8362094476       -8.6764548426  W2        1469            0.0000000000
      4406      1469  TIP3      H1             29.9189313709       -5.3203794476       -7.9906048426  W2        1469            0.0000000000
      4407      1469  TIP3      H2             30.6336013709       -5.5046694476       -9.3124048426  W2        1469            0.0000000000
      4408      1470  TIP3      OH2            29.6676613709       -6.9434994476        3.6795051574  W2        1470            0.0000000000
      4409      1470  TIP3      H1             29.0492713709       -6.2688394476        3.9599751574  W2        1470            0.0000000000
      4410      1470  TIP3      H2             30.0117813709       -6.6221094476        2.8461251574  W2        1470            0.0000000000
      4411      1471  TIP3      OH2            31.4497713709       -6.5930294476      -10.4141348426  W2        1471            0.0000000000
      4412      1471  TIP3      H1             31.2692713709       -6.7479094476      -11.3413048426  W2        1471            0.0000000000
      4413      1471  TIP3      H2             32.3998213709       -6.4851594476      -10.3693448426  W2        1471            0.0000000000
      4414      1472  TIP3      OH2            30.0070313709       -9.5884194476        4.7618151574  W2        1472            0.0000000000
      4415      1472  TIP3      H1             30.1571213709      -10.3172894476        4.1597851574  W2        1472            0.0000000000
      4416      1472  TIP3      H2             30.0092713709       -8.8112494476        4.2030351574  W2        1472            0.0000000000
      4417      1473  TIP3      OH2            30.4196013709      -11.2188394476        2.2545551574  W2        1473            0.0000000000
      4418      1473  TIP3      H1             30.9553513709      -10.7671694476        1.6024851574  W2        1473            0.0000000000
      4419      1473  TIP3      H2             29.5675613709      -11.3268594476        1.8319651574  W2        1473            0.0000000000
      4420      1474  TIP3      OH2            32.0014413709       -5.7792194476        2.4940751574  W2        1474            0.0000000000
      4421      1474  TIP3      H1             32.7519213709       -5.9354694476        1.9208551574  W2        1474            0.0000000000
      4422      1474  TIP3      H2             31.6622713709       -4.9275594476        2.2186251574  W2        1474            0.0000000000
      4423      1475  TIP3      OH2            28.4856613709       -8.3900694476        6.6733751574  W2        1475            0.0000000000
      4424      1475  TIP3      H1             27.7185613709       -8.9225894476        6.4631351574  W2        1475            0.0000000000
      4425      1475  TIP3      H2             29.1645613709       -8.7000294476        6.0740051574  W2        1475            0.0000000000
      4426      1476  TIP3      OH2            31.2251513709      -13.7622694476        2.6859151574  W2        1476            0.0000000000
      4427      1476  TIP3      H1             31.1271113709      -12.8159494476        2.5805351574  W2        1476            0.0000000000
      4428      1476  TIP3      H2             30.4827713709      -14.1348894476        2.2102651574  W2        1476            0.0000000000
      4429      1477  TIP3      OH2            32.4892013709       -9.4407294476        6.2497551574  W2        1477            0.0000000000
      4430      1477  TIP3      H1             32.2537413709       -9.6600594476        7.1512451574  W2        1477            0.0000000000
      4431      1477  TIP3      H2             31.7058913709       -9.6476094476        5.7400051574  W2        1477            0.0000000000
      4432      1478  TIP3      OH2            26.6659413709      -10.4696894476        6.3778451574  W2        1478            0.0000000000
      4433      1478  TIP3      H1             26.8776813709      -11.1760794476        5.7675951574  W2        1478            0.0000000000
      4434      1478  TIP3      H2             26.5546913709      -10.9070894476        7.2219651574  W2        1478            0.0000000000
      4435      1479  TIP3      OH2            31.4469613709      -14.4685294476        5.3571951574  W2        1479            0.0000000000
      4436      1479  TIP3      H1             32.1588013709      -15.1083094476        5.3431051574  W2        1479            0.0000000000
      4437      1479  TIP3      H2             31.3460013709      -14.2016994476        4.4435051574  W2        1479            0.0000000000
      4438      1480  TIP3      OH2            31.8007113709      -12.7856894476        7.4108251574  W2        1480            0.0000000000
      4439      1480  TIP3      H1             31.6689313709      -13.2613094476        6.5906751574  W2        1480            0.0000000000
      4440      1480  TIP3      H2             31.2014513709      -12.0413294476        7.3555351574  W2        1480            0.0000000000
      4441      1481  TIP3      OH2            31.3469413709        4.0973405524       -9.4127748426  W2        1481            0.0000000000
      4442      1481  TIP3      H1             32.2800113709        4.2552105524       -9.2689348426  W2        1481            0.0000000000
      4443      1481  TIP3      H2             31.0828213709        4.7726405524      -10.0376248426  W2        1481            0.0000000000
      4444      1482  TIP3      OH2            24.9154313709       -1.2662794476       -9.9299648426  W2        1482            0.0000000000
      4445      1482  TIP3      H1             25.8293513709       -1.1873894476       -9.6565748426  W2        1482            0.0000000000
      4446      1482  TIP3      H2             24.9227413709       -1.9533194476      -10.5964048426  W2        1482            0.0000000000
      4447      1483  TIP3      OH2            23.5644913709        4.1265705524       -4.8525748426  W2        1483            0.0000000000
      4448      1483  TIP3      H1             22.9172013709        3.6647405524       -5.3854548426  W2        1483            0.0000000000
      4449      1483  TIP3      H2             23.9189513709        3.4549005524       -4.2699548426  W2        1483            0.0000000000
      4450      1484  TIP3      OH2            24.4344113709        2.2072705524       -3.0479548426  W2        1484            0.0000000000
      4451      1484  TIP3      H1             24.1000913709        1.3270005524       -2.8759348426  W2        1484            0.0000000000
      4452      1484  TIP3      H2             24.6566513709        2.5527705524       -2.1833948426  W2        1484            0.0000000000
      4453      1485  TIP3      OH2            24.5143613709       -4.7171894476       -0.5964648426  W2        1485            0.0000000000
      4454      1485  TIP3      H1             24.6986513709       -4.7990194476       -1.5321748426  W2        1485            0.0000000000
      4455      1485  TIP3      H2             25.3636513709       -4.8414894476       -0.1728248426  W2        1485            0.0000000000
      4456      1486  TIP3      OH2            24.1118413709       -9.4466894476        5.5444151574  W2        1486            0.0000000000
      4457      1486  TIP3      H1             25.0313313709       -9.5688594476        5.7807251574  W2        1486            0.0000000000
      4458      1486  TIP3      H2             23.6622913709      -10.1967194476        5.9337651574  W2        1486            0.0000000000
      4459      1487  TIP3      OH2            25.3330913709      -11.1345294476       -1.5642948426  W2        1487            0.0000000000
      4460      1487  TIP3      H1             25.7782513709      -11.9262794476       -1.2623248426  W2        1487            0.0000000000
      4461      1487  TIP3      H2             25.7993913709      -10.4180094476       -1.1337348426  W2        1487            0.0000000000
      4462      1488  TIP3      OH2            23.6371213709       -8.1352294476       -0.4952748426  W2        1488            0.0000000000
      4463      1488  TIP3      H1             24.1291013709       -8.3561794476       -1.2860748426  W2        1488            0.0000000000
      4464      1488  TIP3      H2             23.9992113709       -7.2948894476       -0.2143248426  W2        1488            0.0000000000
      4465      1489  TIP3      OH2            23.9507713709      -11.8773194476       -6.4410348426  W2        1489            0.0000000000
      4466      1489  TIP3      H1             23.0256113709      -11.6686594476       -6.5704848426  W2        1489            0.0000000000
      4467      1489  TIP3      H2             24.4047613709      -11.3932394476       -7.1308048426  W2        1489            0.0000000000
      4468      1490  TIP3      OH2            23.9143113709      -13.1394194476        1.9032151574  W2        1490            0.0000000000
      4469      1490  TIP3      H1             23.2493613709      -13.3853894476        2.5463051574  W2        1490            0.0000000000
      4470      1490  TIP3      H2             23.4714413709      -12.5173794476        1.3260151574  W2        1490            0.0000000000
      4471      1491  TIP3      OH2            26.1062413709        0.0359905524        6.0477951574  W2        1491            0.0000000000
      4472      1491  TIP3      H1             25.2854913709        0.2106405524        5.5872651574  W2        1491            0.0000000000
      4473      1491  TIP3      H2             25.8540213709       -0.0375394476        6.9682351574  W2        1491            0.0000000000
      4474      1492  TIP3      OH2            29.0605313709        1.0101105524        2.3061951574  W2        1492            0.0000000000
      4475      1492  TIP3      H1             28.6356413709        1.8199605524        2.0236551574  W2        1492            0.0000000000
      4476      1492  TIP3      H2             29.9648113709        1.0955205524        2.0041751574  W2        1492            0.0000000000
      4477      1493  TIP3      OH2            26.4622013709        4.2665005524        2.3537251574  W2        1493            0.0000000000
      4478      1493  TIP3      H1             25.7418413709        4.7066005524        1.9024951574  W2        1493            0.0000000000
      4479      1493  TIP3      H2             26.0966013709        4.0159705524        3.2021251574  W2        1493            0.0000000000
      4480      1494  TIP3      OH2            28.9294613709        3.8668905524        1.3834451574  W2        1494            0.0000000000
      4481      1494  TIP3      H1             28.0646813709        3.9387405524        1.7874551574  W2        1494            0.0000000000
      4482      1494  TIP3      H2             28.8743613709        4.4136205524        0.5996951574  W2        1494            0.0000000000
      4483      1495  TIP3      OH2            25.8770113709        2.8897505524       -0.7360948426  W2        1495            0.0000000000
      4484      1495  TIP3      H1             25.8586113709        2.4642605524        0.1211351574  W2        1495            0.0000000000
      4485      1495  TIP3      H2             26.6818013709        2.5712505524       -1.1448748426  W2        1495            0.0000000000
      4486      1496  TIP3      OH2            28.0183213709        1.5996205524       -2.0811048426  W2        1496            0.0000000000
      4487      1496  TIP3      H1             27.7993913709        0.6833605524       -1.9115048426  W2        1496            0.0000000000
      4488      1496  TIP3      H2             28.8425413709        1.7396605524       -1.6149648426  W2        1496            0.0000000000
      4489      1497  TIP3      OH2            30.5555713709        2.0695505524       -1.2323048426  W2        1497            0.0000000000
      4490      1497  TIP3      H1             30.7681413709        1.1814505524       -1.5192148426  W2        1497            0.0000000000
      4491      1497  TIP3      H2             30.6200813709        2.0353205524       -0.2779048426  W2        1497            0.0000000000
      4492      1498  TIP3      OH2            26.3906913709      -13.6323594476       -4.2659848426  W2        1498            0.0000000000
      4493      1498  TIP3      H1             25.6136713709      -13.8668694476       -4.7733948426  W2        1498            0.0000000000
      4494      1498  TIP3      H2             26.9210513709      -14.4291494476       -4.2571848426  W2        1498            0.0000000000
      4495      1499  TIP3      OH2            25.2270313709      -13.8345494476       -8.4623748426  W2        1499            0.0000000000
      4496      1499  TIP3      H1             25.6661013709      -13.2234994476       -9.0540248426  W2        1499            0.0000000000
      4497      1499  TIP3      H2             24.5932713709      -13.2961394476       -7.9883748426  W2        1499            0.0000000000
      4498      1500  TIP3      OH2            30.9699513709      -13.7056494476       -4.4526748426  W2        1500            0.0000000000
      4499      1500  TIP3      H1             31.8442913709      -13.3172194476       -4.4822448426  W2        1500            0.0000000000
      4500      1500  TIP3      H2             30.8340313709      -13.9208694476       -3.5299548426  W2        1500            0.0000000000
      4501      1501  TIP3      OH2            25.1279813709        2.1136705524       -7.5648648426  W2        1501            0.0000000000
      4502      1501  TIP3      H1             24.4429713709        2.0755605524       -8.2323548426  W2        1501            0.0000000000
      4503      1501  TIP3      H2             25.1317013709        3.0264305524       -7.2766548426  W2        1501            0.0000000000
      4504      1502  TIP3      OH2            27.0879413709      -11.9183994476      -10.0199648426  W2        1502            0.0000000000
      4505      1502  TIP3      H1             27.5792813709      -12.5481594476      -10.5474148426  W2        1502            0.0000000000
      4506      1502  TIP3      H2             27.7115713709      -11.6224594476       -9.3568448426  W2        1502            0.0000000000
      4507      1503  TIP3      OH2            32.1139513709      -11.6252494476       -7.5629148426  W2        1503            0.0000000000
      4508      1503  TIP3      H1             32.2920813709      -12.2719294476       -6.8800548426  W2        1503            0.0000000000
      4509      1503  TIP3      H2             32.0605713709      -10.7914794476       -7.0958048426  W2        1503            0.0000000000
      4510      1504  TIP3      OH2            26.3484913709      -13.1181694476        5.2516351574  W2        1504            0.0000000000
      4511      1504  TIP3      H1             25.9823113709      -13.8839094476        5.6941051574  W2        1504            0.0000000000
      4512      1504  TIP3      H2             27.2613413709      -13.0891494476        5.5381451574  W2        1504            0.0000000000
      4513      1505  TIP3      OH2            28.3215713709      -13.7677294476        6.7873451574  W2        1505            0.0000000000
      4514      1505  TIP3      H1             29.2199313709      -14.0417094476        6.6026851574  W2        1505            0.0000000000
      4515      1505  TIP3      H2             27.9348813709      -14.5101294476        7.2516051574  W2        1505            0.0000000000
      4516      1506  TIP3      OH2            26.9461013709        3.0337505524      -10.5396548426  W2        1506            0.0000000000
      4517      1506  TIP3      H1             26.6785613709        3.3200405524       -9.6663448426  W2        1506            0.0000000000
      4518      1506  TIP3      H2             27.7173613709        2.4876705524      -10.3874048426  W2        1506            0.0000000000
      4519      1507  TIP3      OH2           -21.0990486291       14.3798705524       -4.3072348426  W2        1507            0.0000000000
      4520      1507  TIP3      H1            -21.0099386291       15.3236905524       -4.4395248426  W2        1507            0.0000000000
      4521      1507  TIP3      H2            -21.7372886291       14.1045105524       -4.9652948426  W2        1507            0.0000000000
      4522      1508  TIP3      OH2           -22.1659186291       13.6349405524       -0.8884148426  W2        1508            0.0000000000
      4523      1508  TIP3      H1            -22.2041686291       12.9885705524       -0.1834548426  W2        1508            0.0000000000
      4524      1508  TIP3      H2            -22.4882686291       13.1683805524       -1.6595448426  W2        1508            0.0000000000
      4525      1509  TIP3      OH2           -29.7974186291       13.2491505524        0.7045751574  W2        1509            0.0000000000
      4526      1509  TIP3      H1            -29.7562086291       12.6234805524        1.4278151574  W2        1509            0.0000000000
      4527      1509  TIP3      H2            -29.0946486291       13.8730105524        0.8866151574  W2        1509            0.0000000000
      4528      1510  TIP3      OH2           -18.4598986291       16.5739805524       -2.5869048426  W2        1510            0.0000000000
      4529      1510  TIP3      H1            -18.9006286291       15.8535805524       -2.1363448426  W2        1510            0.0000000000
      4530      1510  TIP3      H2            -18.4729286291       17.2947005524       -1.9571348426  W2        1510            0.0000000000
      4531      1511  TIP3      OH2           -28.8741086291       17.6990405524       -0.7605148426  W2        1511            0.0000000000
      4532      1511  TIP3      H1            -29.2435886291       16.8970905524       -1.1300848426  W2        1511            0.0000000000
      4533      1511  TIP3      H2            -27.9329986291       17.5305305524       -0.7141748426  W2        1511            0.0000000000
      4534      1512  TIP3      OH2           -32.2640586291       11.3593005524       -5.3676348426  W2        1512            0.0000000000
      4535      1512  TIP3      H1            -32.7117186291       12.2051705524       -5.3859848426  W2        1512            0.0000000000
      4536      1512  TIP3      H2            -32.8249386291       10.7797205524       -5.8831248426  W2        1512            0.0000000000
      4537      1513  TIP3      OH2           -31.5534486291       13.5212605524       -3.2418348426  W2        1513            0.0000000000
      4538      1513  TIP3      H1            -31.3400986291       12.7514205524       -2.7145348426  W2        1513            0.0000000000
      4539      1513  TIP3      H2            -30.8156886291       13.6109305524       -3.8450748426  W2        1513            0.0000000000
      4540      1514  TIP3      OH2           -21.3483486291       21.6781505524       -2.3748648426  W2        1514            0.0000000000
      4541      1514  TIP3      H1            -20.7287086291       21.0016205524       -2.6479448426  W2        1514            0.0000000000
      4542      1514  TIP3      H2            -21.5566086291       21.4602305524       -1.4663748426  W2        1514            0.0000000000
      4543      1515  TIP3      OH2           -23.7764786291       16.0670805524       -0.4823148426  W2        1515            0.0000000000
      4544      1515  TIP3      H1            -23.4726886291       15.3812205524       -1.0769048426  W2        1515            0.0000000000
      4545      1515  TIP3      H2            -23.0550786291       16.1859505524        0.1354851574  W2        1515            0.0000000000
      4546      1516  TIP3      OH2           -15.1134986291        7.6686105524        0.3783051574  W2        1516            0.0000000000
      4547      1516  TIP3      H1            -15.0642786291        8.2787305524        1.1142151574  W2        1516            0.0000000000
      4548      1516  TIP3      H2            -14.6879886291        8.1297005524       -0.3445848426  W2        1516            0.0000000000
      4549      1517  TIP3      OH2           -20.6357786291       10.4613205524       -0.1548348426  W2        1517            0.0000000000
      4550      1517  TIP3      H1            -20.4931886291        9.5150205524       -0.1346748426  W2        1517            0.0000000000
      4551      1517  TIP3      H2            -20.7418786291       10.6683005524       -1.0833448426  W2        1517            0.0000000000
      4552      1518  TIP3      OH2           -27.4809486291        8.5629605524       -2.8823548426  W2        1518            0.0000000000
      4553      1518  TIP3      H1            -27.4378386291        9.4228105524       -3.3007248426  W2        1518            0.0000000000
      4554      1518  TIP3      H2            -27.9385386291        8.0104305524       -3.5160348426  W2        1518            0.0000000000
      4555      1519  TIP3      OH2           -19.7586786291        8.6935205524       -4.4815248426  W2        1519            0.0000000000
      4556      1519  TIP3      H1            -19.1122486291        8.3648405524       -3.8567648426  W2        1519            0.0000000000
      4557      1519  TIP3      H2            -19.2487386291        9.2114205524       -5.1043848426  W2        1519            0.0000000000
      4558      1520  TIP3      OH2           -30.8607986291       10.9595405524       -2.1202148426  W2        1520            0.0000000000
      4559      1520  TIP3      H1            -30.2071386291       10.4097105524       -1.6882048426  W2        1520            0.0000000000
      4560      1520  TIP3      H2            -30.8368686291       10.6854405524       -3.0370148426  W2        1520            0.0000000000
      4561      1521  TIP3      OH2           -25.7043486291       12.5096705524       -2.9050648426  W2        1521            0.0000000000
      4562      1521  TIP3      H1            -25.0882486291       11.9832105524       -2.3956648426  W2        1521            0.0000000000
      4563      1521  TIP3      H2            -26.2904686291       11.8695405524       -3.3087048426  W2        1521            0.0000000000
      4564      1522  TIP3      OH2           -14.7220386291        9.1465305524        2.6142851574  W2        1522            0.0000000000
      4565      1522  TIP3      H1            -15.4105786291        9.8046005524        2.5189451574  W2        1522            0.0000000000
      4566      1522  TIP3      H2            -14.7065786291        8.9493205524        3.5508251574  W2        1522            0.0000000000
      4567      1523  TIP3      OH2           -28.6707586291        7.4808005524        1.1917251574  W2        1523            0.0000000000
      4568      1523  TIP3      H1            -28.8895886291        8.0108605524        0.4253251574  W2        1523            0.0000000000
      4569      1523  TIP3      H2            -29.3386686291        7.7073505524        1.8388651574  W2        1523            0.0000000000
      4570      1524  TIP3      OH2           -21.3017786291       16.9809105524       -5.2643648426  W2        1524            0.0000000000
      4571      1524  TIP3      H1            -21.5972686291       16.6581405524       -6.1156748426  W2        1524            0.0000000000
      4572      1524  TIP3      H2            -21.6259986291       17.8805805524       -5.2231048426  W2        1524            0.0000000000
      4573      1525  TIP3      OH2           -26.1016186291       15.1563705524        1.4790951574  W2        1525            0.0000000000
      4574      1525  TIP3      H1            -26.8417086291       15.7545205524        1.5826151574  W2        1525            0.0000000000
      4575      1525  TIP3      H2            -25.3876686291       15.7103305524        1.1634551574  W2        1525            0.0000000000
      4576      1526  TIP3      OH2           -17.9948386291        7.9844505524       -2.5009348426  W2        1526            0.0000000000
      4577      1526  TIP3      H1            -18.2100386291        7.2187905524       -1.9683348426  W2        1526            0.0000000000
      4578      1526  TIP3      H2            -17.3390986291        8.4569105524       -1.9880848426  W2        1526            0.0000000000
      4579      1527  TIP3      OH2           -29.0770286291        9.3729805524       -0.8560548426  W2        1527            0.0000000000
      4580      1527  TIP3      H1            -28.4633986291       10.0057405524       -0.4828148426  W2        1527            0.0000000000
      4581      1527  TIP3      H2            -28.5649586291        8.9004805524       -1.5123648426  W2        1527            0.0000000000
      4582      1528  TIP3      OH2           -27.6941886291       17.1206705524        2.2662451574  W2        1528            0.0000000000
      4583      1528  TIP3      H1            -27.6994286291       18.0000205524        1.8881751574  W2        1528            0.0000000000
      4584      1528  TIP3      H2            -28.5477786291       17.0370805524        2.6912351574  W2        1528            0.0000000000
      4585      1529  TIP3      OH2           -31.5730986291       16.7914605524       -6.9518248426  W2        1529            0.0000000000
      4586      1529  TIP3      H1            -31.8450086291       17.0205605524       -7.8405348426  W2        1529            0.0000000000
      4587      1529  TIP3      H2            -31.5275286291       17.6293405524       -6.4912948426  W2        1529            0.0000000000
      4588      1530  TIP3      OH2           -17.9481286291       18.4130505524       -0.2389748426  W2        1530            0.0000000000
      4589      1530  TIP3      H1            -18.8897586291       18.4714405524       -0.0772848426  W2        1530            0.0000000000
      4590      1530  TIP3      H2            -17.6715186291       19.3191005524       -0.3760048426  W2        1530            0.0000000000
      4591      1531  TIP3      OH2           -17.6474286291        6.6995805524        1.1784151574  W2        1531            0.0000000000
      4592      1531  TIP3      H1            -18.3835086291        7.3102905524        1.1405451574  W2        1531            0.0000000000
      4593      1531  TIP3      H2            -16.9640286291        7.1144805524        0.6520551574  W2        1531            0.0000000000
      4594      1532  TIP3      OH2           -24.6442886291        4.7863105524       -1.3557848426  W2        1532            0.0000000000
      4595      1532  TIP3      H1            -24.7618686291        3.8379105524       -1.4099548426  W2        1532            0.0000000000
      4596      1532  TIP3      H2            -25.4992786291        5.1189205524       -1.0826748426  W2        1532            0.0000000000
      4597      1533  TIP3      OH2           -19.6960086291       20.1944005524       -3.6138148426  W2        1533            0.0000000000
      4598      1533  TIP3      H1            -19.2707786291       19.4871905524       -4.0988548426  W2        1533            0.0000000000
      4599      1533  TIP3      H2            -19.3790086291       20.9956705524       -4.0305948426  W2        1533            0.0000000000
      4600      1534  TIP3      OH2           -18.5363586291       18.0952505524       -5.1051548426  W2        1534            0.0000000000
      4601      1534  TIP3      H1            -18.7938786291       17.4052605524       -5.7165648426  W2        1534            0.0000000000
      4602      1534  TIP3      H2            -18.4652786291       17.6523705524       -4.2595648426  W2        1534            0.0000000000
      4603      1535  TIP3      OH2           -16.8503386291       16.6619205524        3.3721951574  W2        1535            0.0000000000
      4604      1535  TIP3      H1            -16.7107086291       16.0701705524        2.6328951574  W2        1535            0.0000000000
      4605      1535  TIP3      H2            -16.6830586291       17.5345105524        3.0160751574  W2        1535            0.0000000000
      4606      1536  TIP3      OH2           -22.3777986291       13.6238705524       -6.8552048426  W2        1536            0.0000000000
      4607      1536  TIP3      H1            -23.0892486291       14.1588405524       -7.2071548426  W2        1536            0.0000000000
      4608      1536  TIP3      H2            -21.6868386291       13.6790805524       -7.5153148426  W2        1536            0.0000000000
      4609      1537  TIP3      OH2           -22.3238786291       12.0813005524       -9.8167048426  W2        1537            0.0000000000
      4610      1537  TIP3      H1            -21.6228886291       12.1039905524       -9.1653048426  W2        1537            0.0000000000
      4611      1537  TIP3      H2            -22.0215886291       11.4532705524      -10.4727748426  W2        1537            0.0000000000
      4612      1538  TIP3      OH2           -15.0084086291       13.0017205524        1.4382351574  W2        1538            0.0000000000
      4613      1538  TIP3      H1            -15.6609986291       13.6962805524        1.5273251574  W2        1538            0.0000000000
      4614      1538  TIP3      H2            -14.5433786291       13.2118105524        0.6283951574  W2        1538            0.0000000000
      4615      1539  TIP3      OH2           -18.9720286291       13.8332005524       -5.9036148426  W2        1539            0.0000000000
      4616      1539  TIP3      H1            -19.7039286291       14.0615705524       -5.3305548426  W2        1539            0.0000000000
      4617      1539  TIP3      H2            -18.5248086291       13.1194705524       -5.4488648426  W2        1539            0.0000000000
      4618      1540  TIP3      OH2           -19.0746786291       12.0074605524        3.1640851574  W2        1540            0.0000000000
      4619      1540  TIP3      H1            -18.9947686291       12.7709005524        3.7359351574  W2        1540            0.0000000000
      4620      1540  TIP3      H2            -19.6759086291       12.2867005524        2.4735951574  W2        1540            0.0000000000
      4621      1541  TIP3      OH2           -27.3266586291       14.4638205524       -4.0211148426  W2        1541            0.0000000000
      4622      1541  TIP3      H1            -27.6571386291       14.0931605524       -4.8394148426  W2        1541            0.0000000000
      4623      1541  TIP3      H2            -26.7382486291       13.7932205524       -3.6742848426  W2        1541            0.0000000000
      4624      1542  TIP3      OH2           -25.9599086291       17.8918805524       -1.3398948426  W2        1542            0.0000000000
      4625      1542  TIP3      H1            -26.0547786291       17.3131905524       -2.0964348426  W2        1542            0.0000000000
      4626      1542  TIP3      H2            -25.2305486291       17.5204505524       -0.8436148426  W2        1542            0.0000000000
      4627      1543  TIP3      OH2           -26.9601086291       13.2323805524       -0.3876148426  W2        1543            0.0000000000
      4628      1543  TIP3      H1            -26.3948586291       13.3538005524       -1.1504948426  W2        1543            0.0000000000
      4629      1543  TIP3      H2            -26.6412186291       13.8698805524        0.2512351574  W2        1543            0.0000000000
      4630      1544  TIP3      OH2           -20.6508886291       18.7355705524        0.3464351574  W2        1544            0.0000000000
      4631      1544  TIP3      H1            -20.8912286291       19.3978805524        0.9943551574  W2        1544            0.0000000000
      4632      1544  TIP3      H2            -20.8490686291       17.9010905524        0.7713951574  W2        1544            0.0000000000
      4633      1545  TIP3      OH2           -26.0800386291       17.6316505524        4.3295751574  W2        1545            0.0000000000
      4634      1545  TIP3      H1            -26.3912886291       18.4139705524        4.7848951574  W2        1545            0.0000000000
      4635      1545  TIP3      H2            -26.7300186291       17.4785605524        3.6437751574  W2        1545            0.0000000000
      4636      1546  TIP3      OH2           -20.1010786291       12.9954905524       -8.2184948426  W2        1546            0.0000000000
      4637      1546  TIP3      H1            -19.5215286291       13.1455205524       -7.4716048426  W2        1546            0.0000000000
      4638      1546  TIP3      H2            -19.6870786291       13.4662305524       -8.9418548426  W2        1546            0.0000000000
      4639      1547  TIP3      OH2           -29.1600486291       13.8297605524        3.5581451574  W2        1547            0.0000000000
      4640      1547  TIP3      H1            -29.0897286291       14.4804405524        4.2566451574  W2        1547            0.0000000000
      4641      1547  TIP3      H2            -30.0508286291       13.9325105524        3.2232351574  W2        1547            0.0000000000
      4642      1548  TIP3      OH2           -22.3745886291       19.7323405524       -4.7831848426  W2        1548            0.0000000000
      4643      1548  TIP3      H1            -21.9008286291       20.0279705524       -4.0057648426  W2        1548            0.0000000000
      4644      1548  TIP3      H2            -22.9376586291       20.4705005524       -5.0162248426  W2        1548            0.0000000000
      4645      1549  TIP3      OH2           -27.8404486291       19.7031505524        5.0929551574  W2        1549            0.0000000000
      4646      1549  TIP3      H1            -27.8329186291       19.5671205524        4.1455051574  W2        1549            0.0000000000
      4647      1549  TIP3      H2            -28.7564086291       19.5859605524        5.3449551574  W2        1549            0.0000000000
      4648      1550  TIP3      OH2           -16.4022386291        4.7455305524       -8.4055248426  W2        1550            0.0000000000
      4649      1550  TIP3      H1            -17.3021686291        4.8844305524       -8.1104648426  W2        1550            0.0000000000
      4650      1550  TIP3      H2            -16.1503986291        5.5769905524       -8.8073548426  W2        1550            0.0000000000
      4651      1551  TIP3      OH2           -28.3363886291       13.5332505524       -6.4318348426  W2        1551            0.0000000000
      4652      1551  TIP3      H1            -28.6282586291       14.3014205524       -6.9227048426  W2        1551            0.0000000000
      4653      1551  TIP3      H2            -29.0108686291       12.8738705524       -6.5946948426  W2        1551            0.0000000000
      4654      1552  TIP3      OH2           -15.2130986291       19.1117705524      -10.0291348426  W2        1552            0.0000000000
      4655      1552  TIP3      H1            -15.1397486291       20.0507905524       -9.8586048426  W2        1552            0.0000000000
      4656      1552  TIP3      H2            -14.3075886291       18.8066305524      -10.0854048426  W2        1552            0.0000000000
      4657      1553  TIP3      OH2           -32.2433786291       15.8961705524        2.3831451574  W2        1553            0.0000000000
      4658      1553  TIP3      H1            -32.7445386291       15.8681105524        1.5681151574  W2        1553            0.0000000000
      4659      1553  TIP3      H2            -32.2380086291       14.9904905524        2.6928751574  W2        1553            0.0000000000
      4660      1554  TIP3      OH2           -32.4931086291       18.6765505524       -0.7328348426  W2        1554            0.0000000000
      4661      1554  TIP3      H1            -31.5470486291       18.5322505524       -0.7518848426  W2        1554            0.0000000000
      4662      1554  TIP3      H2            -32.6054786291       19.4608305524       -0.1957148426  W2        1554            0.0000000000
      4663      1555  TIP3      OH2           -14.2952586291       19.3425205524        4.9495351574  W2        1555            0.0000000000
      4664      1555  TIP3      H1            -14.3445786291       18.3873305524        4.9122951574  W2        1555            0.0000000000
      4665      1555  TIP3      H2            -15.1220286291       19.6100505524        5.3509151574  W2        1555            0.0000000000
      4666      1556  TIP3      OH2           -23.3168586291       18.9164405524        3.8256751574  W2        1556            0.0000000000
      4667      1556  TIP3      H1            -23.2293986291       19.7429005524        4.3005851574  W2        1556            0.0000000000
      4668      1556  TIP3      H2            -24.1803486291       18.5868205524        4.0746051574  W2        1556            0.0000000000
      4669      1557  TIP3      OH2           -22.9022786291       22.6888105524       -6.3682648426  W2        1557            0.0000000000
      4670      1557  TIP3      H1            -22.9776786291       22.5675305524       -7.3147448426  W2        1557            0.0000000000
      4671      1557  TIP3      H2            -22.8694086291       23.6380805524       -6.2498048426  W2        1557            0.0000000000
      4672      1558  TIP3      OH2           -29.2488986291       21.4775105524       -4.5873648426  W2        1558            0.0000000000
      4673      1558  TIP3      H1            -29.0968586291       21.1295505524       -3.7087148426  W2        1558            0.0000000000
      4674      1558  TIP3      H2            -30.0998586291       21.1212405524       -4.8426448426  W2        1558            0.0000000000
      4675      1559  TIP3      OH2           -19.8006786291       21.8428305524       -9.3660248426  W2        1559            0.0000000000
      4676      1559  TIP3      H1            -19.4258386291       21.0984405524       -9.8367648426  W2        1559            0.0000000000
      4677      1559  TIP3      H2            -19.7963086291       21.5728905524       -8.4476948426  W2        1559            0.0000000000
      4678      1560  TIP3      OH2           -20.1318686291       21.7685405524       -6.6168048426  W2        1560            0.0000000000
      4679      1560  TIP3      H1            -21.0668886291       21.8687305524       -6.4381048426  W2        1560            0.0000000000
      4680      1560  TIP3      H2            -19.8516786291       21.0591405524       -6.0384848426  W2        1560            0.0000000000
      4681      1561  TIP3      OH2           -17.1432786291       10.8357705524        5.4297551574  W2        1561            0.0000000000
      4682      1561  TIP3      H1            -17.5505986291       11.3163305524        4.7090851574  W2        1561            0.0000000000
      4683      1561  TIP3      H2            -17.1027086291        9.9303705524        5.1218351574  W2        1561            0.0000000000
      4684      1562  TIP3      OH2           -29.9943286291       17.2197105524        3.4264251574  W2        1562            0.0000000000
      4685      1562  TIP3      H1            -29.7781986291       16.8582705524        4.2860051574  W2        1562            0.0000000000
      4686      1562  TIP3      H2            -30.8498586291       16.8450905524        3.2167751574  W2        1562            0.0000000000
      4687      1563  TIP3      OH2           -27.3755286291        5.6897605524       -0.5781548426  W2        1563            0.0000000000
      4688      1563  TIP3      H1            -28.2371586291        5.6025805524       -0.9858648426  W2        1563            0.0000000000
      4689      1563  TIP3      H2            -27.3979586291        6.5457705524       -0.1503948426  W2        1563            0.0000000000
      4690      1564  TIP3      OH2           -22.7127486291        5.4118005524        2.7965451574  W2        1564            0.0000000000
      4691      1564  TIP3      H1            -22.2924386291        4.9965105524        3.5496051574  W2        1564            0.0000000000
      4692      1564  TIP3      H2            -23.6457886291        5.2331305524        2.9137451574  W2        1564            0.0000000000
      4693      1565  TIP3      OH2           -19.3862586291        9.1673205524        3.6499951574  W2        1565            0.0000000000
      4694      1565  TIP3      H1            -19.9003086291        9.0415405524        4.4475951574  W2        1565            0.0000000000
      4695      1565  TIP3      H2            -19.5417886291       10.0796305524        3.4056151574  W2        1565            0.0000000000
      4696      1566  TIP3      OH2           -18.6237686291       14.0283205524      -10.5887048426  W2        1566            0.0000000000
      4697      1566  TIP3      H1            -18.5816886291       13.8057105524      -11.5187048426  W2        1566            0.0000000000
      4698      1566  TIP3      H2            -17.7745586291       14.4270305524      -10.3987148426  W2        1566            0.0000000000
      4699      1567  TIP3      OH2           -23.0510186291        7.9041405524       -9.9183748426  W2        1567            0.0000000000
      4700      1567  TIP3      H1            -23.3045386291        7.9233005524       -8.9955648426  W2        1567            0.0000000000
      4701      1567  TIP3      H2            -23.3078086291        7.0326805524      -10.2197548426  W2        1567            0.0000000000
      4702      1568  TIP3      OH2           -27.2845186291       10.6552105524        0.5168651574  W2        1568            0.0000000000
      4703      1568  TIP3      H1            -27.9263086291       10.6149405524        1.2258751574  W2        1568            0.0000000000
      4704      1568  TIP3      H2            -27.2473186291       11.5816805524        0.2791651574  W2        1568            0.0000000000
      4705      1569  TIP3      OH2           -27.2876086291       10.8762205524       -4.5711348426  W2        1569            0.0000000000
      4706      1569  TIP3      H1            -28.1803186291       10.5358305524       -4.6297548426  W2        1569            0.0000000000
      4707      1569  TIP3      H2            -26.8369486291       10.4993105524       -5.3268148426  W2        1569            0.0000000000
      4708      1570  TIP3      OH2           -21.7520586291       11.2922505524       -5.7540548426  W2        1570            0.0000000000
      4709      1570  TIP3      H1            -22.1610286291       12.1071105524       -6.0455748426  W2        1570            0.0000000000
      4710      1570  TIP3      H2            -21.0314386291       11.1522605524       -6.3683448426  W2        1570            0.0000000000
      4711      1571  TIP3      OH2           -22.6498986291       11.4678905524        5.7340151574  W2        1571            0.0000000000
      4712      1571  TIP3      H1            -23.2125186291       10.7630505524        6.0547951574  W2        1571            0.0000000000
      4713      1571  TIP3      H2            -21.8235586291       11.3470805524        6.2017751574  W2        1571            0.0000000000
      4714      1572  TIP3      OH2           -20.7472886291       10.7382905524       -2.9400848426  W2        1572            0.0000000000
      4715      1572  TIP3      H1            -20.9428386291       11.3439705524       -3.6550248426  W2        1572            0.0000000000
      4716      1572  TIP3      H2            -20.5660286291        9.9048105524       -3.3744548426  W2        1572            0.0000000000
      4717      1573  TIP3      OH2           -29.5344686291       10.9755605524        2.3840651574  W2        1573            0.0000000000
      4718      1573  TIP3      H1            -29.5725286291       11.3757205524        3.2527751574  W2        1573            0.0000000000
      4719      1573  TIP3      H2            -30.0253586291       10.1588005524        2.4743551574  W2        1573            0.0000000000
      4720      1574  TIP3      OH2           -26.1687286291        8.3497905524      -10.8173348426  W2        1574            0.0000000000
      4721      1574  TIP3      H1            -26.5996586291        7.9048005524      -10.0875948426  W2        1574            0.0000000000
      4722      1574  TIP3      H2            -26.8868586291        8.7214205524      -11.3295848426  W2        1574            0.0000000000
      4723      1575  TIP3      OH2           -32.9263886291        8.0917405524       -3.7654648426  W2        1575            0.0000000000
      4724      1575  TIP3      H1            -32.2956186291        8.0629505524       -3.0460748426  W2        1575            0.0000000000
      4725      1575  TIP3      H2            -32.4769586291        7.6666105524       -4.4958748426  W2        1575            0.0000000000
      4726      1576  TIP3      OH2           -31.6521786291        8.8379405524       -8.3414248426  W2        1576            0.0000000000
      4727      1576  TIP3      H1            -31.1780086291        9.4289305524       -8.9263348426  W2        1576            0.0000000000
      4728      1576  TIP3      H2            -32.3695386291        9.3682305524       -7.9944148426  W2        1576            0.0000000000
      4729      1577  TIP3      OH2           -21.4833686291       12.3764205524        1.7311551574  W2        1577            0.0000000000
      4730      1577  TIP3      H1            -21.1598886291       11.7453905524        1.0882051574  W2        1577            0.0000000000
      4731      1577  TIP3      H2            -21.9234386291       11.8416405524        2.3918951574  W2        1577            0.0000000000
      4732      1578  TIP3      OH2           -24.7060786291        8.3039705524       -3.4847248426  W2        1578            0.0000000000
      4733      1578  TIP3      H1            -25.6169686291        8.3606505524       -3.1961248426  W2        1578            0.0000000000
      4734      1578  TIP3      H2            -24.2007886291        8.2435205524       -2.6740048426  W2        1578            0.0000000000
      4735      1579  TIP3      OH2           -29.8777386291        9.9326005524       -4.6579648426  W2        1579            0.0000000000
      4736      1579  TIP3      H1            -30.7669386291       10.0321505524       -4.9980048426  W2        1579            0.0000000000
      4737      1579  TIP3      H2            -29.5812486291        9.0909005524       -5.0041748426  W2        1579            0.0000000000
      4738      1580  TIP3      OH2           -26.2245586291        9.9328605524       -7.0015048426  W2        1580            0.0000000000
      4739      1580  TIP3      H1            -25.2930086291       10.0618605524       -6.8231948426  W2        1580            0.0000000000
      4740      1580  TIP3      H2            -26.4395286291       10.6022905524       -7.6510348426  W2        1580            0.0000000000
      4741      1581  TIP3      OH2           -20.3008886291        7.5386005524       -0.2205448426  W2        1581            0.0000000000
      4742      1581  TIP3      H1            -20.9777286291        7.6699105524        0.4434251574  W2        1581            0.0000000000
      4743      1581  TIP3      H2            -20.7863986291        7.3835505524       -1.0307748426  W2        1581            0.0000000000
      4744      1582  TIP3      OH2           -27.5505386291       11.1270805524       -9.4348948426  W2        1582            0.0000000000
      4745      1582  TIP3      H1            -28.0930286291       10.7474605524      -10.1261348426  W2        1582            0.0000000000
      4746      1582  TIP3      H2            -26.7170486291       11.3215505524       -9.8634848426  W2        1582            0.0000000000
      4747      1583  TIP3      OH2           -17.0133786291       23.2101405524        6.0562151574  W2        1583            0.0000000000
      4748      1583  TIP3      H1            -16.8135086291       23.6343305524        5.2217451574  W2        1583            0.0000000000
      4749      1583  TIP3      H2            -16.3580086291       23.5539605524        6.6632551574  W2        1583            0.0000000000
      4750      1584  TIP3      OH2           -29.4153986291       15.6842705524        5.6642651574  W2        1584            0.0000000000
      4751      1584  TIP3      H1            -28.6831586291       15.9388605524        6.2257151574  W2        1584            0.0000000000
      4752      1584  TIP3      H2            -30.1955286291       15.8888105524        6.1798051574  W2        1584            0.0000000000
      4753      1585  TIP3      OH2           -23.3861086291       11.0912705524       -1.5977648426  W2        1585            0.0000000000
      4754      1585  TIP3      H1            -22.8217686291       10.5449305524       -2.1448048426  W2        1585            0.0000000000
      4755      1585  TIP3      H2            -23.5337686291       10.5694605524       -0.8090048426  W2        1585            0.0000000000
      4756      1586  TIP3      OH2           -28.3841386291        7.2278805524       -5.1792848426  W2        1586            0.0000000000
      4757      1586  TIP3      H1            -28.7011886291        6.3254105524       -5.2147448426  W2        1586            0.0000000000
      4758      1586  TIP3      H2            -27.6027286291        7.2296205524       -5.7321248426  W2        1586            0.0000000000
      4759      1587  TIP3      OH2           -24.7595186291        9.4798805524        0.8162751574  W2        1587            0.0000000000
      4760      1587  TIP3      H1            -25.5949886291        9.9338305524        0.9265151574  W2        1587            0.0000000000
      4761      1587  TIP3      H2            -24.2354586291        9.7557305524        1.5682651574  W2        1587            0.0000000000
      4762      1588  TIP3      OH2           -24.2152586291       15.6926505524       -7.4990848426  W2        1588            0.0000000000
      4763      1588  TIP3      H1            -24.9601586291       15.1851805524       -7.8212948426  W2        1588            0.0000000000
      4764      1588  TIP3      H2            -24.3495386291       15.7414505524       -6.5526048426  W2        1588            0.0000000000
      4765      1589  TIP3      OH2           -17.0653686291       14.8254705524        1.2876751574  W2        1589            0.0000000000
      4766      1589  TIP3      H1            -16.4234886291       15.2821005524        0.7438951574  W2        1589            0.0000000000
      4767      1589  TIP3      H2            -17.8956786291       14.9387105524        0.8250851574  W2        1589            0.0000000000
      4768      1590  TIP3      OH2           -20.3175786291        8.5066405524       -9.2998248426  W2        1590            0.0000000000
      4769      1590  TIP3      H1            -21.2561586291        8.6182005524       -9.4509448426  W2        1590            0.0000000000
      4770      1590  TIP3      H2            -20.0203686291        9.3633305524       -8.9932548426  W2        1590            0.0000000000
      4771      1591  TIP3      OH2           -22.6960486291       15.8769805524        3.7378251574  W2        1591            0.0000000000
      4772      1591  TIP3      H1            -23.0414386291       15.4952205524        4.5447851574  W2        1591            0.0000000000
      4773      1591  TIP3      H2            -22.8960386291       16.8103405524        3.8091151574  W2        1591            0.0000000000
      4774      1592  TIP3      OH2           -19.5992286291       10.3739105524       -7.6390848426  W2        1592            0.0000000000
      4775      1592  TIP3      H1            -18.7073286291       10.2364105524       -7.3199648426  W2        1592            0.0000000000
      4776      1592  TIP3      H2            -19.5428686291       11.1645205524       -8.1757348426  W2        1592            0.0000000000
      4777      1593  TIP3      OH2           -29.0904286291       14.9876505524       -1.7292948426  W2        1593            0.0000000000
      4778      1593  TIP3      H1            -28.3457086291       14.9852205524       -2.3306448426  W2        1593            0.0000000000
      4779      1593  TIP3      H2            -29.0127686291       14.1640305524       -1.2477848426  W2        1593            0.0000000000
      4780      1594  TIP3      OH2           -22.0898486291       17.1510805524       -8.4736248426  W2        1594            0.0000000000
      4781      1594  TIP3      H1            -22.3850086291       17.9778705524       -8.0921448426  W2        1594            0.0000000000
      4782      1594  TIP3      H2            -22.7928486291       16.5317705524       -8.2774848426  W2        1594            0.0000000000
      4783      1595  TIP3      OH2           -32.0824586291       13.4483405524        3.5855551574  W2        1595            0.0000000000
      4784      1595  TIP3      H1            -31.8595986291       13.0303005524        4.4173051574  W2        1595            0.0000000000
      4785      1595  TIP3      H2            -32.6844486291       12.8358405524        3.1628351574  W2        1595            0.0000000000
      4786      1596  TIP3      OH2           -25.0659686291       12.9653305524        5.7985251574  W2        1596            0.0000000000
      4787      1596  TIP3      H1            -25.3618886291       12.7996305524        4.9034351574  W2        1596            0.0000000000
      4788      1596  TIP3      H2            -24.1344486291       12.7453605524        5.7879151574  W2        1596            0.0000000000
      4789      1597  TIP3      OH2           -20.4456886291       18.3385305524        3.6883251574  W2        1597            0.0000000000
      4790      1597  TIP3      H1            -21.3462586291       18.5217905524        3.4207151574  W2        1597            0.0000000000
      4791      1597  TIP3      H2            -20.4115786291       18.5974605524        4.6092051574  W2        1597            0.0000000000
      4792      1598  TIP3      OH2           -14.7143586291       10.5833205524       -7.9444148426  W2        1598            0.0000000000
      4793      1598  TIP3      H1            -15.2687286291       10.1871205524       -8.6166648426  W2        1598            0.0000000000
      4794      1598  TIP3      H2            -14.6139986291       11.4938405524       -8.2220848426  W2        1598            0.0000000000
      4795      1599  TIP3      OH2           -14.7511586291       16.3834905524        4.8927351574  W2        1599            0.0000000000
      4796      1599  TIP3      H1            -15.6023086291       16.6218705524        4.5253751574  W2        1599            0.0000000000
      4797      1599  TIP3      H2            -14.1608186291       16.3668105524        4.1394451574  W2        1599            0.0000000000
      4798      1600  TIP3      OH2           -16.4191886291       19.3693605524       -7.4792048426  W2        1600            0.0000000000
      4799      1600  TIP3      H1            -16.7920786291       18.5437405524       -7.1701448426  W2        1600            0.0000000000
      4800      1600  TIP3      H2            -16.1418386291       19.1863005524       -8.3768648426  W2        1600            0.0000000000
      4801      1601  TIP3      OH2           -19.2587986291       14.1773105524       -0.4580148426  W2        1601            0.0000000000
      4802      1601  TIP3      H1            -20.1871086291       13.9455005524       -0.4850848426  W2        1601            0.0000000000
      4803      1601  TIP3      H2            -18.8076886291       13.4002905524       -0.7881348426  W2        1601            0.0000000000
      4804      1602  TIP3      OH2           -26.7154886291       18.5054705524       -4.3251448426  W2        1602            0.0000000000
      4805      1602  TIP3      H1            -26.1882686291       19.2789105524       -4.5252648426  W2        1602            0.0000000000
      4806      1602  TIP3      H2            -27.5956386291       18.7303905524       -4.6267448426  W2        1602            0.0000000000
      4807      1603  TIP3      OH2           -30.9607186291       13.3678805524       -9.7379048426  W2        1603            0.0000000000
      4808      1603  TIP3      H1            -30.3447286291       13.9946005524       -9.3584248426  W2        1603            0.0000000000
      4809      1603  TIP3      H2            -31.8224586291       13.6838605524       -9.4662548426  W2        1603            0.0000000000
      4810      1604  TIP3      OH2           -25.2882586291       16.1684605524       -4.7487148426  W2        1604            0.0000000000
      4811      1604  TIP3      H1            -25.5292586291       17.0939005524       -4.7071848426  W2        1604            0.0000000000
      4812      1604  TIP3      H2            -26.0288986291       15.7095905524       -4.3523248426  W2        1604            0.0000000000
      4813      1605  TIP3      OH2           -24.7735986291       20.3178205524        1.5663951574  W2        1605            0.0000000000
      4814      1605  TIP3      H1            -24.4111286291       21.1723805524        1.3328351574  W2        1605            0.0000000000
      4815      1605  TIP3      H2            -24.2420786291       20.0259805524        2.3070251574  W2        1605            0.0000000000
      4816      1606  TIP3      OH2           -26.6051786291       21.1902205524       -5.2034948426  W2        1606            0.0000000000
      4817      1606  TIP3      H1            -27.5551286291       21.2959605524       -5.1521648426  W2        1606            0.0000000000
      4818      1606  TIP3      H2            -26.2533686291       22.0109605524       -4.8587448426  W2        1606            0.0000000000
      4819      1607  TIP3      OH2           -21.2295186291       16.4168905524        1.2669551574  W2        1607            0.0000000000
      4820      1607  TIP3      H1            -21.6553886291       16.1890605524        2.0933551574  W2        1607            0.0000000000
      4821      1607  TIP3      H2            -20.6489386291       15.6780705524        1.0844851574  W2        1607            0.0000000000
      4822      1608  TIP3      OH2           -19.0266286291       17.3459405524       -9.6591448426  W2        1608            0.0000000000
      4823      1608  TIP3      H1            -18.6733186291       16.9659205524       -8.8547948426  W2        1608            0.0000000000
      4824      1608  TIP3      H2            -19.9752786291       17.2524205524       -9.5722148426  W2        1608            0.0000000000
      4825      1609  TIP3      OH2           -18.5710986291       20.9688405524        3.7364351574  W2        1609            0.0000000000
      4826      1609  TIP3      H1            -19.1727786291       20.4131305524        3.2410651574  W2        1609            0.0000000000
      4827      1609  TIP3      H2            -18.2897286291       21.6358205524        3.1101751574  W2        1609            0.0000000000
      4828      1610  TIP3      OH2           -14.5231886291       21.8251905524       -9.4581248426  W2        1610            0.0000000000
      4829      1610  TIP3      H1            -13.7793986291       22.4112405524       -9.5979648426  W2        1610            0.0000000000
      4830      1610  TIP3      H2            -15.2173786291       22.3937705524       -9.1248848426  W2        1610            0.0000000000
      4831      1611  TIP3      OH2           -30.4485086291        8.2016105524        3.1436951574  W2        1611            0.0000000000
      4832      1611  TIP3      H1            -31.3412786291        8.5401505524        3.0760951574  W2        1611            0.0000000000
      4833      1611  TIP3      H2            -30.5472286291        7.3462205524        3.5617751574  W2        1611            0.0000000000
      4834      1612  TIP3      OH2           -18.1606986291       16.0181405524       -7.4323548426  W2        1612            0.0000000000
      4835      1612  TIP3      H1            -18.4379386291       15.2900705524       -6.8762448426  W2        1612            0.0000000000
      4836      1612  TIP3      H2            -17.2333986291       16.1373405524       -7.2270948426  W2        1612            0.0000000000
      4837      1613  TIP3      OH2           -30.7973086291       20.0060505524        1.5786351574  W2        1613            0.0000000000
      4838      1613  TIP3      H1            -30.5802786291       19.0742905524        1.5476051574  W2        1613            0.0000000000
      4839      1613  TIP3      H2            -30.5509586291       20.2805505524        2.4619151574  W2        1613            0.0000000000
      4840      1614  TIP3      OH2           -24.9358486291       18.4575505524      -11.2121448426  W2        1614            0.0000000000
      4841      1614  TIP3      H1            -24.6968686291       17.7093605524      -11.7592548426  W2        1614            0.0000000000
      4842      1614  TIP3      H2            -25.2047186291       18.0697205524      -10.3793648426  W2        1614            0.0000000000
      4843      1615  TIP3      OH2           -25.9987886291       18.0279305524       -8.7558848426  W2        1615            0.0000000000
      4844      1615  TIP3      H1            -25.8519886291       17.5079105524       -7.9657948426  W2        1615            0.0000000000
      4845      1615  TIP3      H2            -26.0016186291       18.9346905524       -8.4492948426  W2        1615            0.0000000000
      4846      1616  TIP3      OH2           -29.5456786291       15.2802605524       -8.2453448426  W2        1616            0.0000000000
      4847      1616  TIP3      H1            -30.2317486291       15.6325105524       -7.6783748426  W2        1616            0.0000000000
      4848      1616  TIP3      H2            -29.0228886291       16.0432205524       -8.4919148426  W2        1616            0.0000000000
      4849      1617  TIP3      OH2           -21.7141686291        7.9426405524        2.0335551574  W2        1617            0.0000000000
      4850      1617  TIP3      H1            -21.0153786291        8.0165105524        2.6835251574  W2        1617            0.0000000000
      4851      1617  TIP3      H2            -22.0950286291        7.0781405524        2.1878451574  W2        1617            0.0000000000
      4852      1618  TIP3      OH2           -20.9296786291        7.5948105524       -6.8692148426  W2        1618            0.0000000000
      4853      1618  TIP3      H1            -20.7098486291        8.0663505524       -7.6726748426  W2        1618            0.0000000000
      4854      1618  TIP3      H2            -20.3712786291        7.9890705524       -6.1991548426  W2        1618            0.0000000000
      4855      1619  TIP3      OH2           -23.2610686291       19.7252905524       -8.0064648426  W2        1619            0.0000000000
      4856      1619  TIP3      H1            -24.0774586291       20.2222605524       -7.9540348426  W2        1619            0.0000000000
      4857      1619  TIP3      H2            -22.7314386291       20.2006405524       -8.6465848426  W2        1619            0.0000000000
      4858      1620  TIP3      OH2           -23.7296886291        9.3226905524       -6.0343748426  W2        1620            0.0000000000
      4859      1620  TIP3      H1            -22.9174286291        9.8270105524       -5.9882048426  W2        1620            0.0000000000
      4860      1620  TIP3      H2            -23.9743886291        9.1776605524       -5.1204148426  W2        1620            0.0000000000
      4861      1621  TIP3      OH2           -23.1940486291       10.3089605524        3.1502851574  W2        1621            0.0000000000
      4862      1621  TIP3      H1            -23.0750186291       10.8825005524        3.9073251574  W2        1621            0.0000000000
      4863      1621  TIP3      H2            -22.5385886291        9.6209005524        3.2650651574  W2        1621            0.0000000000
      4864      1622  TIP3      OH2           -22.8460186291        6.4039905524       -5.0962648426  W2        1622            0.0000000000
      4865      1622  TIP3      H1            -23.1926686291        7.0210505524       -4.4518348426  W2        1622            0.0000000000
      4866      1622  TIP3      H2            -22.1873286291        6.9045605524       -5.5777148426  W2        1622            0.0000000000
      4867      1623  TIP3      OH2           -25.9227586291       20.7690105524       -8.0247748426  W2        1623            0.0000000000
      4868      1623  TIP3      H1            -25.7618886291       21.5687605524       -8.5255148426  W2        1623            0.0000000000
      4869      1623  TIP3      H2            -26.1199786291       21.0756105524       -7.1397148426  W2        1623            0.0000000000
      4870      1624  TIP3      OH2           -27.1883186291        7.4669305524       -8.4090148426  W2        1624            0.0000000000
      4871      1624  TIP3      H1            -27.2718386291        8.3552405524       -8.0623748426  W2        1624            0.0000000000
      4872      1624  TIP3      H2            -26.2982886291        7.2016005524       -8.1773348426  W2        1624            0.0000000000
      4873      1625  TIP3      OH2           -16.9894686291        8.2159905524        3.9852551574  W2        1625            0.0000000000
      4874      1625  TIP3      H1            -17.9058886291        8.4781605524        3.8976251574  W2        1625            0.0000000000
      4875      1625  TIP3      H2            -16.6539686291        8.2128905524        3.0887851574  W2        1625            0.0000000000
      4876      1626  TIP3      OH2           -18.3873686291       11.9660905524       -1.9190148426  W2        1626            0.0000000000
      4877      1626  TIP3      H1            -19.1849286291       11.5511105524       -2.2475148426  W2        1626            0.0000000000
      4878      1626  TIP3      H2            -17.9422586291       11.2754605524       -1.4279648426  W2        1626            0.0000000000
      4879      1627  TIP3      OH2           -28.9297886291       17.8941505524       -9.3485648426  W2        1627            0.0000000000
      4880      1627  TIP3      H1            -28.3376386291       18.5936305524       -9.0723248426  W2        1627            0.0000000000
      4881      1627  TIP3      H2            -28.4704886291       17.4611005524      -10.0681048426  W2        1627            0.0000000000
      4882      1628  TIP3      OH2           -30.6138686291       10.5584505524      -10.2326248426  W2        1628            0.0000000000
      4883      1628  TIP3      H1            -30.6586086291       11.4977605524      -10.0539248426  W2        1628            0.0000000000
      4884      1628  TIP3      H2            -31.5015486291       10.3229405524      -10.5024148426  W2        1628            0.0000000000
      4885      1629  TIP3      OH2           -17.3009086291       21.2223405524       -0.2966648426  W2        1629            0.0000000000
      4886      1629  TIP3      H1            -17.4564786291       21.9007805524       -0.9537348426  W2        1629            0.0000000000
      4887      1629  TIP3      H2            -16.3682686291       21.2942705524       -0.0936048426  W2        1629            0.0000000000
      4888      1630  TIP3      OH2           -29.8056686291        5.3401105524       -1.5595248426  W2        1630            0.0000000000
      4889      1630  TIP3      H1            -30.0346886291        5.3993605524       -2.4870248426  W2        1630            0.0000000000
      4890      1630  TIP3      H2            -30.2483286291        4.5486605524       -1.2531148426  W2        1630            0.0000000000
      4891      1631  TIP3      OH2           -30.8753386291       19.2808205524       -5.3989448426  W2        1631            0.0000000000
      4892      1631  TIP3      H1            -31.7074786291       19.7530905524       -5.3718048426  W2        1631            0.0000000000
      4893      1631  TIP3      H2            -30.3295086291       19.7905805524       -5.9976348426  W2        1631            0.0000000000
      4894      1632  TIP3      OH2           -31.5869686291       21.8931905524        5.9308551574  W2        1632            0.0000000000
      4895      1632  TIP3      H1            -31.0467486291       21.6765905524        6.6907751574  W2        1632            0.0000000000
      4896      1632  TIP3      H2            -32.0681686291       21.0877905524        5.7411051574  W2        1632            0.0000000000
      4897      1633  TIP3      OH2           -26.9896286291       20.8126305524        7.5512751574  W2        1633            0.0000000000
      4898      1633  TIP3      H1            -26.2219086291       20.3537105524        7.8921951574  W2        1633            0.0000000000
      4899      1633  TIP3      H2            -27.0110086291       20.5866105524        6.6213951574  W2        1633            0.0000000000
      4900      1634  TIP3      OH2           -22.8976686291       20.3206905524      -11.0735448426  W2        1634            0.0000000000
      4901      1634  TIP3      H1            -23.5415686291       19.6895505524      -10.7521748426  W2        1634            0.0000000000
      4902      1634  TIP3      H2            -22.1358386291       19.7894905524      -11.3051948426  W2        1634            0.0000000000
      4903      1635  TIP3      OH2           -20.4127586291       19.1927405524        6.2804251574  W2        1635            0.0000000000
      4904      1635  TIP3      H1            -20.7638086291       18.3360405524        6.5234651574  W2        1635            0.0000000000
      4905      1635  TIP3      H2            -19.6864386291       19.3354105524        6.8873251574  W2        1635            0.0000000000
      4906      1636  TIP3      OH2           -18.2933786291       20.1376805524      -10.8397448426  W2        1636            0.0000000000
      4907      1636  TIP3      H1            -18.0103386291       19.3432005524      -10.3870548426  W2        1636            0.0000000000
      4908      1636  TIP3      H2            -17.5535886291       20.3707805524      -11.4006348426  W2        1636            0.0000000000
      4909      1637  TIP3      OH2           -31.6800186291       15.7036005524        6.8852851574  W2        1637            0.0000000000
      4910      1637  TIP3      H1            -31.5359686291       14.8016705524        6.5989551574  W2        1637            0.0000000000
      4911      1637  TIP3      H2            -32.4522786291       15.9898105524        6.3975151574  W2        1637            0.0000000000
      4912      1638  TIP3      OH2           -27.3386486291       16.0471705524      -10.9822548426  W2        1638            0.0000000000
      4913      1638  TIP3      H1            -27.2742386291       15.2531305524      -10.4516148426  W2        1638            0.0000000000
      4914      1638  TIP3      H2            -26.6857286291       15.9284505524      -11.6720548426  W2        1638            0.0000000000
      4915      1639  TIP3      OH2           -25.0244086291       15.6734105524        6.3179251574  W2        1639            0.0000000000
      4916      1639  TIP3      H1            -25.3530286291       15.9442205524        5.4606651574  W2        1639            0.0000000000
      4917      1639  TIP3      H2            -24.8725886291       14.7323905524        6.2304251574  W2        1639            0.0000000000
      4918      1640  TIP3      OH2           -21.9863086291       17.0943405524      -11.2464548426  W2        1640            0.0000000000
      4919      1640  TIP3      H1            -22.2548986291       17.2745505524      -10.3455648426  W2        1640            0.0000000000
      4920      1640  TIP3      H2            -22.1927486291       16.1689605524      -11.3778748426  W2        1640            0.0000000000
      4921      1641  TIP3      OH2           -19.2898886291       15.5891405524        3.7011551574  W2        1641            0.0000000000
      4922      1641  TIP3      H1            -18.5444086291       16.1775105524        3.5815551574  W2        1641            0.0000000000
      4923      1641  TIP3      H2            -20.0472086291       16.1711105524        3.7644651574  W2        1641            0.0000000000
      4924      1642  TIP3      OH2           -30.8473686291       12.9039305524        6.3052151574  W2        1642            0.0000000000
      4925      1642  TIP3      H1            -30.4392486291       12.0465905524        6.1842751574  W2        1642            0.0000000000
      4926      1642  TIP3      H2            -31.1076086291       12.9180605524        7.2262451574  W2        1642            0.0000000000
      4927      1643  TIP3      OH2           -26.1892686291       14.0197905524       -8.6764548426  W2        1643            0.0000000000
      4928      1643  TIP3      H1            -26.6490686291       13.5356205524       -7.9906048426  W2        1643            0.0000000000
      4929      1643  TIP3      H2            -25.9343986291       13.3513305524       -9.3124048426  W2        1643            0.0000000000
      4930      1644  TIP3      OH2           -26.9003386291       11.9125005524        3.6795051574  W2        1644            0.0000000000
      4931      1644  TIP3      H1            -27.5187286291       12.5871605524        3.9599751574  W2        1644            0.0000000000
      4932      1644  TIP3      H2            -26.5562186291       12.2338905524        2.8461251574  W2        1644            0.0000000000
      4933      1645  TIP3      OH2           -25.1182286291       12.2629705524      -10.4141348426  W2        1645            0.0000000000
      4934      1645  TIP3      H1            -25.2987286291       12.1080905524      -11.3413048426  W2        1645            0.0000000000
      4935      1645  TIP3      H2            -24.1681786291       12.3708405524      -10.3693448426  W2        1645            0.0000000000
      4936      1646  TIP3      OH2           -21.8805186291       14.3840305524        6.9569851574  W2        1646            0.0000000000
      4937      1646  TIP3      H1            -20.9273986291       14.4679405524        6.9295851574  W2        1646            0.0000000000
      4938      1646  TIP3      H2            -22.0410586291       13.6722105524        7.5764751574  W2        1646            0.0000000000
      4939      1647  TIP3      OH2           -15.7283986291       14.6173905524      -10.9683248426  W2        1647            0.0000000000
      4940      1647  TIP3      H1            -16.0019186291       14.1929405524      -11.7814948426  W2        1647            0.0000000000
      4941      1647  TIP3      H2            -15.6889886291       15.5488405524      -11.1852848426  W2        1647            0.0000000000
      4942      1648  TIP3      OH2           -26.5609686291        9.2675805524        4.7618151574  W2        1648            0.0000000000
      4943      1648  TIP3      H1            -26.4108786291        8.5387105524        4.1597851574  W2        1648            0.0000000000
      4944      1648  TIP3      H2            -26.5587286291       10.0447505524        4.2030351574  W2        1648            0.0000000000
      4945      1649  TIP3      OH2           -26.1483986291        7.6371605524        2.2545551574  W2        1649            0.0000000000
      4946      1649  TIP3      H1            -25.6126486291        8.0888305524        1.6024851574  W2        1649            0.0000000000
      4947      1649  TIP3      H2            -27.0004386291        7.5291405524        1.8319651574  W2        1649            0.0000000000
      4948      1650  TIP3      OH2           -24.5665586291       13.0767805524        2.4940751574  W2        1650            0.0000000000
      4949      1650  TIP3      H1            -23.8160786291       12.9205305524        1.9208551574  W2        1650            0.0000000000
      4950      1650  TIP3      H2            -24.9057286291       13.9284405524        2.2186251574  W2        1650            0.0000000000
      4951      1651  TIP3      OH2           -20.1509386291       10.8919605524        7.5226051574  W2        1651            0.0000000000
      4952      1651  TIP3      H1            -19.9588086291        9.9609005524        7.4110551574  W2        1651            0.0000000000
      4953      1651  TIP3      H2            -19.2933086291       11.3169105524        7.5121451574  W2        1651            0.0000000000
      4954      1652  TIP3      OH2           -18.8342186291       13.6804805524        5.5998751574  W2        1652            0.0000000000
      4955      1652  TIP3      H1            -19.1157186291       14.3899405524        5.0222551574  W2        1652            0.0000000000
      4956      1652  TIP3      H2            -17.8917886291       13.6077805524        5.4489951574  W2        1652            0.0000000000
      4957      1653  TIP3      OH2           -28.0823386291       10.4659305524        6.6733751574  W2        1653            0.0000000000
      4958      1653  TIP3      H1            -28.8494386291        9.9334105524        6.4631351574  W2        1653            0.0000000000
      4959      1653  TIP3      H2            -27.4034386291       10.1559705524        6.0740051574  W2        1653            0.0000000000
      4960      1654  TIP3      OH2           -25.3428486291        5.0937305524        2.6859151574  W2        1654            0.0000000000
      4961      1654  TIP3      H1            -25.4408886291        6.0400505524        2.5805351574  W2        1654            0.0000000000
      4962      1654  TIP3      H2            -26.0852286291        4.7211105524        2.2102651574  W2        1654            0.0000000000
      4963      1655  TIP3      OH2           -24.0787986291        9.4152705524        6.2497551574  W2        1655            0.0000000000
      4964      1655  TIP3      H1            -24.3142586291        9.1959405524        7.1512451574  W2        1655            0.0000000000
      4965      1655  TIP3      H2            -24.8621086291        9.2083905524        5.7400051574  W2        1655            0.0000000000
      4966      1656  TIP3      OH2           -21.3631386291        8.5426205524        5.3251051574  W2        1656            0.0000000000
      4967      1656  TIP3      H1            -22.3105986291        8.5745905524        5.4574351574  W2        1656            0.0000000000
      4968      1656  TIP3      H2            -21.0504686291        7.9173305524        5.9789251574  W2        1656            0.0000000000
      4969      1657  TIP3      OH2           -19.7289886291        7.1767305524        7.3302951574  W2        1657            0.0000000000
      4970      1657  TIP3      H1            -19.8258086291        6.2244605524        7.3244851574  W2        1657            0.0000000000
      4971      1657  TIP3      H2            -20.0506786291        7.4454105524        8.1908451574  W2        1657            0.0000000000
      4972      1658  TIP3      OH2           -29.9020586291        8.3863105524        6.3778451574  W2        1658            0.0000000000
      4973      1658  TIP3      H1            -29.6903186291        7.6799205524        5.7675951574  W2        1658            0.0000000000
      4974      1658  TIP3      H2            -30.0133086291        7.9489105524        7.2219651574  W2        1658            0.0000000000
      4975      1659  TIP3      OH2           -25.1210386291        4.3874705524        5.3571951574  W2        1659            0.0000000000
      4976      1659  TIP3      H1            -24.4091986291        3.7476905524        5.3431051574  W2        1659            0.0000000000
      4977      1659  TIP3      H2            -25.2219986291        4.6543005524        4.4435051574  W2        1659            0.0000000000
      4978      1660  TIP3      OH2           -24.7672886291        6.0703105524        7.4108251574  W2        1660            0.0000000000
      4979      1660  TIP3      H1            -24.8990686291        5.5946905524        6.5906751574  W2        1660            0.0000000000
      4980      1660  TIP3      H2            -25.3665486291        6.8146705524        7.3555351574  W2        1660            0.0000000000
      4981      1661  TIP3      OH2           -25.2210586291       22.9533405524       -9.4127748426  W2        1661            0.0000000000
      4982      1661  TIP3      H1            -24.2879886291       23.1112105524       -9.2689348426  W2        1661            0.0000000000
      4983      1661  TIP3      H2            -25.4851786291       23.6286405524      -10.0376248426  W2        1661            0.0000000000
      4984      1662  TIP3      OH2           -31.6525686291       17.5897205524       -9.9299648426  W2        1662            0.0000000000
      4985      1662  TIP3      H1            -30.7386486291       17.6686105524       -9.6565748426  W2        1662            0.0000000000
      4986      1662  TIP3      H2            -31.6452586291       16.9026805524      -10.5964048426  W2        1662            0.0000000000
      4987      1663  TIP3      OH2           -33.0035086291       22.9825705524       -4.8525748426  W2        1663            0.0000000000
      4988      1663  TIP3      H1            -33.6507986291       22.5207405524       -5.3854548426  W2        1663            0.0000000000
      4989      1663  TIP3      H2            -32.6490486291       22.3109005524       -4.2699548426  W2        1663            0.0000000000
      4990      1664  TIP3      OH2           -32.1335886291       21.0632705524       -3.0479548426  W2        1664            0.0000000000
      4991      1664  TIP3      H1            -32.4679086291       20.1830005524       -2.8759348426  W2        1664            0.0000000000
      4992      1664  TIP3      H2            -31.9113486291       21.4087705524       -2.1833948426  W2        1664            0.0000000000
      4993      1665  TIP3      OH2           -14.5851086291       21.8729105524       -0.0674748426  W2        1665            0.0000000000
      4994      1665  TIP3      H1            -14.6064386291       22.0577505524        0.8714651574  W2        1665            0.0000000000
      4995      1665  TIP3      H2            -13.8944886291       22.4413105524       -0.4083348426  W2        1665            0.0000000000
      4996      1666  TIP3      OH2           -15.0218186291       21.4400205524        2.8544351574  W2        1666            0.0000000000
      4997      1666  TIP3      H1            -15.5089486291       20.7044305524        2.4831751574  W2        1666            0.0000000000
      4998      1666  TIP3      H2            -14.4725486291       21.0464105524        3.5323751574  W2        1666            0.0000000000
      4999      1667  TIP3      OH2           -16.5710886291       17.2298305524        7.4924651574  W2        1667            0.0000000000
      5000      1667  TIP3      H1            -17.4369786291       17.1248005524        7.8866951574  W2        1667            0.0000000000
      5001      1667  TIP3      H2            -16.1944986291       17.9881605524        7.9389351574  W2        1667            0.0000000000
      5002      1668  TIP3      OH2           -15.2701186291       15.4862005524       -6.9932848426  W2        1668            0.0000000000
      5003      1668  TIP3      H1            -14.4199786291       15.9072905524       -6.8661248426  W2        1668            0.0000000000
      5004      1668  TIP3      H2            -15.2646086291       14.7462105524       -6.3861448426  W2        1668            0.0000000000
      5005      1669  TIP3      OH2           -14.8755586291       13.5399405524       -5.1697148426  W2        1669            0.0000000000
      5006      1669  TIP3      H1            -15.6020986291       13.0602005524       -4.7719548426  W2        1669            0.0000000000
      5007      1669  TIP3      H2            -14.2942286291       13.7454105524       -4.4375548426  W2        1669            0.0000000000
      5008      1670  TIP3      OH2           -15.1164386291       16.3246905524       -0.2219548426  W2        1670            0.0000000000
      5009      1670  TIP3      H1            -14.2830186291       15.9466905524       -0.5025948426  W2        1670            0.0000000000
      5010      1670  TIP3      H2            -15.0044086291       17.2678105524       -0.3410448426  W2        1670            0.0000000000
      5011      1671  TIP3      OH2           -16.6302086291       19.2024405524        2.0848851574  W2        1671            0.0000000000
      5012      1671  TIP3      H1            -17.2776786291       19.5275905524        2.7104051574  W2        1671            0.0000000000
      5013      1671  TIP3      H2            -17.1478086291       18.7622105524        1.4107151574  W2        1671            0.0000000000
      5014      1672  TIP3      OH2           -14.6072486291       13.4407905524       -8.7785848426  W2        1672            0.0000000000
      5015      1672  TIP3      H1            -15.1291386291       13.7972005524       -9.4974948426  W2        1672            0.0000000000
      5016      1672  TIP3      H2            -14.6403286291       14.1155705524       -8.1004948426  W2        1672            0.0000000000
      5017      1673  TIP3      OH2           -16.2583486291       10.6803505524      -10.2278748426  W2        1673            0.0000000000
      5018      1673  TIP3      H1            -16.1619086291       11.3470505524      -10.9079048426  W2        1673            0.0000000000
      5019      1673  TIP3      H2            -16.3983886291        9.8649805524      -10.7093248426  W2        1673            0.0000000000
      5020      1674  TIP3      OH2           -17.0888786291       12.0605905524       -4.6068448426  W2        1674            0.0000000000
      5021      1674  TIP3      H1            -17.2389986291       11.1154505524       -4.6270648426  W2        1674            0.0000000000
      5022      1674  TIP3      H2            -17.4424286291       12.3417305524       -3.7629348426  W2        1674            0.0000000000
      5023      1675  TIP3      OH2           -32.0536386291       14.1388105524       -0.5964648426  W2        1675            0.0000000000
      5024      1675  TIP3      H1            -31.8693486291       14.0569805524       -1.5321748426  W2        1675            0.0000000000
      5025      1675  TIP3      H2            -31.2043486291       14.0145105524       -0.1728248426  W2        1675            0.0000000000
      5026      1676  TIP3      OH2           -16.2325886291       14.0309205524        5.0319851574  W2        1676            0.0000000000
      5027      1676  TIP3      H1            -15.6498586291       13.2961505524        5.2237051574  W2        1676            0.0000000000
      5028      1676  TIP3      H2            -15.6686586291       14.8029505524        5.0785651574  W2        1676            0.0000000000
      5029      1677  TIP3      OH2           -14.7358786291       11.9335005524        5.7165251574  W2        1677            0.0000000000
      5030      1677  TIP3      H1            -15.5992086291       11.5547105524        5.5509951574  W2        1677            0.0000000000
      5031      1677  TIP3      H2            -14.1315086291       11.1949805524        5.6421051574  W2        1677            0.0000000000
      5032      1678  TIP3      OH2           -17.0109686291        8.0883305524      -11.1103248426  W2        1678            0.0000000000
      5033      1678  TIP3      H1            -16.4003886291        7.7170105524      -10.4735048426  W2        1678            0.0000000000
      5034      1678  TIP3      H2            -17.8478186291        7.6670205524      -10.9143248426  W2        1678            0.0000000000
      5035      1679  TIP3      OH2           -17.3783986291        9.6431705524       -6.1443348426  W2        1679            0.0000000000
      5036      1679  TIP3      H1            -17.0986886291        8.7362105524       -6.0201648426  W2        1679            0.0000000000
      5037      1679  TIP3      H2            -16.6192286291       10.0773205524       -6.5334148426  W2        1679            0.0000000000
      5038      1680  TIP3      OH2           -16.7665686291       10.2249105524       -0.7084448426  W2        1680            0.0000000000
      5039      1680  TIP3      H1            -15.8337686291       10.4369005524       -0.7428448426  W2        1680            0.0000000000
      5040      1680  TIP3      H2            -17.0018186291       10.3261205524        0.2138551574  W2        1680            0.0000000000
      5041      1681  TIP3      OH2           -16.7373786291       10.9614405524        2.0674951574  W2        1681            0.0000000000
      5042      1681  TIP3      H1            -17.5802486291       11.2294805524        2.4334751574  W2        1681            0.0000000000
      5043      1681  TIP3      H2            -16.2949486291       11.7836305524        1.8566051574  W2        1681            0.0000000000
      5044      1682  TIP3      OH2           -32.4561586291        9.4093105524        5.5444151574  W2        1682            0.0000000000
      5045      1682  TIP3      H1            -31.5366686291        9.2871405524        5.7807251574  W2        1682            0.0000000000
      5046      1682  TIP3      H2            -32.9057086291        8.6592805524        5.9337651574  W2        1682            0.0000000000
      5047      1683  TIP3      OH2           -14.4542186291        4.9414605524        7.4209951574  W2        1683            0.0000000000
      5048      1683  TIP3      H1            -14.1045186291        4.2878105524        6.8154651574  W2        1683            0.0000000000
      5049      1683  TIP3      H2            -14.3072686291        5.7788705524        6.9812551574  W2        1683            0.0000000000
      5050      1684  TIP3      OH2           -16.7649186291        6.9061005524       -6.0961348426  W2        1684            0.0000000000
      5051      1684  TIP3      H1            -16.5824186291        6.4572505524       -5.2706348426  W2        1684            0.0000000000
      5052      1684  TIP3      H2            -17.3646286291        6.3215405524       -6.5596748426  W2        1684            0.0000000000
      5053      1685  TIP3      OH2           -31.2349086291        7.7214705524       -1.5642948426  W2        1685            0.0000000000
      5054      1685  TIP3      H1            -30.7897486291        6.9297205524       -1.2623248426  W2        1685            0.0000000000
      5055      1685  TIP3      H2            -30.7686086291        8.4379905524       -1.1337348426  W2        1685            0.0000000000
      5056      1686  TIP3      OH2           -32.9308786291       10.7207705524       -0.4952748426  W2        1686            0.0000000000
      5057      1686  TIP3      H1            -32.4388986291       10.4998205524       -1.2860748426  W2        1686            0.0000000000
      5058      1686  TIP3      H2            -32.5687886291       11.5611105524       -0.2143248426  W2        1686            0.0000000000
      5059      1687  TIP3      OH2           -14.9344986291        7.0509205524        5.7701251574  W2        1687            0.0000000000
      5060      1687  TIP3      H1            -15.8519286291        7.3216305524        5.7344751574  W2        1687            0.0000000000
      5061      1687  TIP3      H2            -14.8115586291        6.5157605524        4.9860951574  W2        1687            0.0000000000
      5062      1688  TIP3      OH2           -14.8982986291        6.9739105524       -9.5681048426  W2        1688            0.0000000000
      5063      1688  TIP3      H1            -14.4860386291        6.2524805524      -10.0433048426  W2        1688            0.0000000000
      5064      1688  TIP3      H2            -14.2166486291        7.6433705524       -9.5096748426  W2        1688            0.0000000000
      5065      1689  TIP3      OH2           -32.6172286291        6.9786805524       -6.4410348426  W2        1689            0.0000000000
      5066      1689  TIP3      H1            -33.5423886291        7.1873405524       -6.5704848426  W2        1689            0.0000000000
      5067      1689  TIP3      H2            -32.1632386291        7.4627605524       -7.1308048426  W2        1689            0.0000000000
      5068      1690  TIP3      OH2           -17.8465086291       21.9628505524       -4.4952948426  W2        1690            0.0000000000
      5069      1690  TIP3      H1            -17.1942186291       21.6150605524       -5.1033848426  W2        1690            0.0000000000
      5070      1690  TIP3      H2            -17.3361286291       22.4511705524       -3.8493248426  W2        1690            0.0000000000
      5071      1691  TIP3      OH2           -32.6536886291        5.7165805524        1.9032151574  W2        1691            0.0000000000
      5072      1691  TIP3      H1            -33.3186386291        5.4706105524        2.5463051574  W2        1691            0.0000000000
      5073      1691  TIP3      H2            -33.0965586291        6.3386205524        1.3260151574  W2        1691            0.0000000000
      5074      1692  TIP3      OH2           -30.4617586291       18.8919905524        6.0477951574  W2        1692            0.0000000000
      5075      1692  TIP3      H1            -31.2825086291       19.0666405524        5.5872651574  W2        1692            0.0000000000
      5076      1692  TIP3      H2            -30.7139786291       18.8184605524        6.9682351574  W2        1692            0.0000000000
      5077      1693  TIP3      OH2           -27.5074686291       19.8661105524        2.3061951574  W2        1693            0.0000000000
      5078      1693  TIP3      H1            -27.9323586291       20.6759605524        2.0236551574  W2        1693            0.0000000000
      5079      1693  TIP3      H2            -26.6031886291       19.9515205524        2.0041751574  W2        1693            0.0000000000
      5080      1694  TIP3      OH2           -23.1963286291       21.2651105524        5.2655651574  W2        1694            0.0000000000
      5081      1694  TIP3      H1            -23.0115786291       20.9317205524        6.1435951574  W2        1694            0.0000000000
      5082      1694  TIP3      H2            -22.3498786291       21.5749705524        4.9434851574  W2        1694            0.0000000000
      5083      1695  TIP3      OH2           -20.8512886291       22.5510005524        4.5097051574  W2        1695            0.0000000000
      5084      1695  TIP3      H1            -20.1743986291       21.9182305524        4.2696251574  W2        1695            0.0000000000
      5085      1695  TIP3      H2            -20.5294086291       22.9520505524        5.3170351574  W2        1695            0.0000000000
      5086      1696  TIP3      OH2           -15.9339086291        5.1405505524        3.5892051574  W2        1696            0.0000000000
      5087      1696  TIP3      H1            -16.7465586291        5.4655805524        3.2016751574  W2        1696            0.0000000000
      5088      1696  TIP3      H2            -15.7010586291        4.3804005524        3.0561151574  W2        1696            0.0000000000
      5089      1697  TIP3      OH2           -30.1057986291       23.1225005524        2.3537251574  W2        1697            0.0000000000
      5090      1697  TIP3      H1            -30.8261586291       23.5626005524        1.9024951574  W2        1697            0.0000000000
      5091      1697  TIP3      H2            -30.4713986291       22.8719705524        3.2021251574  W2        1697            0.0000000000
      5092      1698  TIP3      OH2           -27.6385386291       22.7228905524        1.3834451574  W2        1698            0.0000000000
      5093      1698  TIP3      H1            -28.5033186291       22.7947405524        1.7874551574  W2        1698            0.0000000000
      5094      1698  TIP3      H2            -27.6936386291       23.2696205524        0.5996951574  W2        1698            0.0000000000
      5095      1699  TIP3      OH2           -22.9279786291       22.6107805524        0.5590451574  W2        1699            0.0000000000
      5096      1699  TIP3      H1            -23.3845786291       23.1397505524       -0.0951148426  W2        1699            0.0000000000
      5097      1699  TIP3      H2            -22.7651786291       23.2139205524        1.2842751574  W2        1699            0.0000000000
      5098      1700  TIP3      OH2           -20.6003486291       21.4887405524        1.5040751574  W2        1700            0.0000000000
      5099      1700  TIP3      H1            -21.5049786291       21.6537605524        1.2382851574  W2        1700            0.0000000000
      5100      1700  TIP3      H2            -20.1714886291       22.3419605524        1.4384151574  W2        1700            0.0000000000
      5101      1701  TIP3      OH2           -17.9961586291       23.0586505524        1.7988551574  W2        1701            0.0000000000
      5102      1701  TIP3      H1            -18.1779586291       23.9745405524        1.5883451574  W2        1701            0.0000000000
      5103      1701  TIP3      H2            -17.8193786291       22.6483605524        0.9523151574  W2        1701            0.0000000000
      5104      1702  TIP3      OH2           -30.6909886291       21.7457505524       -0.7360948426  W2        1702            0.0000000000
      5105      1702  TIP3      H1            -30.7093886291       21.3202605524        0.1211351574  W2        1702            0.0000000000
      5106      1702  TIP3      H2            -29.8861986291       21.4272505524       -1.1448748426  W2        1702            0.0000000000
      5107      1703  TIP3      OH2           -28.5496786291       20.4556205524       -2.0811048426  W2        1703            0.0000000000
      5108      1703  TIP3      H1            -28.7686086291       19.5393605524       -1.9115048426  W2        1703            0.0000000000
      5109      1703  TIP3      H2            -27.7254586291       20.5956605524       -1.6149648426  W2        1703            0.0000000000
      5110      1704  TIP3      OH2           -26.0124286291       20.9255505524       -1.2323048426  W2        1704            0.0000000000
      5111      1704  TIP3      H1            -25.7998586291       20.0374505524       -1.5192148426  W2        1704            0.0000000000
      5112      1704  TIP3      H2            -25.9479186291       20.8913205524       -0.2779048426  W2        1704            0.0000000000
      5113      1705  TIP3      OH2           -22.5040586291        6.5896105524       -2.0879748426  W2        1705            0.0000000000
      5114      1705  TIP3      H1            -23.1783786291        5.9601705524       -1.8323948426  W2        1705            0.0000000000
      5115      1705  TIP3      H2            -21.9401386291        6.1055005524       -2.6911848426  W2        1705            0.0000000000
      5116      1706  TIP3      OH2           -17.3613386291        4.6970105524       -1.9752648426  W2        1706            0.0000000000
      5117      1706  TIP3      H1            -16.7575786291        5.2445505524       -2.4771648426  W2        1706            0.0000000000
      5118      1706  TIP3      H2            -18.2311386291        5.0160505524       -2.2158548426  W2        1706            0.0000000000
      5119      1707  TIP3      OH2           -15.6342986291        5.8358805524       -3.6421748426  W2        1707            0.0000000000
      5120      1707  TIP3      H1            -15.0225486291        5.3214505524       -4.1688148426  W2        1707            0.0000000000
      5121      1707  TIP3      H2            -15.2519586291        6.7130905524       -3.6187348426  W2        1707            0.0000000000
      5122      1708  TIP3      OH2           -30.1773086291        5.2236405524       -4.2659848426  W2        1708            0.0000000000
      5123      1708  TIP3      H1            -30.9543286291        4.9891305524       -4.7733948426  W2        1708            0.0000000000
      5124      1708  TIP3      H2            -29.6469486291        4.4268505524       -4.2571848426  W2        1708            0.0000000000
      5125      1709  TIP3      OH2           -31.3409686291        5.0214505524       -8.4623748426  W2        1709            0.0000000000
      5126      1709  TIP3      H1            -30.9018986291        5.6325005524       -9.0540248426  W2        1709            0.0000000000
      5127      1709  TIP3      H2            -31.9747286291        5.5598605524       -7.9883748426  W2        1709            0.0000000000
      5128      1710  TIP3      OH2           -25.5980486291        5.1503505524       -4.4526748426  W2        1710            0.0000000000
      5129      1710  TIP3      H1            -24.7237086291        5.5387805524       -4.4822448426  W2        1710            0.0000000000
      5130      1710  TIP3      H2            -25.7339686291        4.9351305524       -3.5299548426  W2        1710            0.0000000000
      5131      1711  TIP3      OH2           -20.0412086291        5.1803305524       -2.8035048426  W2        1711            0.0000000000
      5132      1711  TIP3      H1            -19.9650486291        5.2754905524       -3.7529048426  W2        1711            0.0000000000
      5133      1711  TIP3      H2            -20.3162886291        4.2726205524       -2.6745948426  W2        1711            0.0000000000
      5134      1712  TIP3      OH2           -18.6879486291        5.2061105524       -7.1110048426  W2        1712            0.0000000000
      5135      1712  TIP3      H1            -19.3908386291        5.8210305524       -7.3208648426  W2        1712            0.0000000000
      5136      1712  TIP3      H2            -19.1328086291        4.3687805524       -6.9799148426  W2        1712            0.0000000000
      5137      1713  TIP3      OH2           -31.4400186291       20.9696705524       -7.5648648426  W2        1713            0.0000000000
      5138      1713  TIP3      H1            -32.1250286291       20.9315605524       -8.2323548426  W2        1713            0.0000000000
      5139      1713  TIP3      H2            -31.4362986291       21.8824305524       -7.2766548426  W2        1713            0.0000000000
      5140      1714  TIP3      OH2           -29.4800586291        6.9376005524      -10.0199648426  W2        1714            0.0000000000
      5141      1714  TIP3      H1            -28.9887186291        6.3078405524      -10.5474148426  W2        1714            0.0000000000
      5142      1714  TIP3      H2            -28.8564286291        7.2335405524       -9.3568448426  W2        1714            0.0000000000
      5143      1715  TIP3      OH2           -24.4540486291        7.2307505524       -7.5629148426  W2        1715            0.0000000000
      5144      1715  TIP3      H1            -24.2759186291        6.5840705524       -6.8800548426  W2        1715            0.0000000000
      5145      1715  TIP3      H2            -24.5074286291        8.0645205524       -7.0958048426  W2        1715            0.0000000000
      5146      1716  TIP3      OH2           -22.5756686291       22.1791605524       -9.1672448426  W2        1716            0.0000000000
      5147      1716  TIP3      H1            -21.7096486291       22.5459005524       -9.3454248426  W2        1716            0.0000000000
      5148      1716  TIP3      H2            -22.8223886291       21.7399605524       -9.9811648426  W2        1716            0.0000000000
      5149      1717  TIP3      OH2           -15.8667086291       21.7421905524       -6.4881348426  W2        1717            0.0000000000
      5150      1717  TIP3      H1            -16.0609986291       20.9944005524       -7.0531748426  W2        1717            0.0000000000
      5151      1717  TIP3      H2            -15.9056986291       22.5002005524       -7.0713448426  W2        1717            0.0000000000
      5152      1718  TIP3      OH2           -30.2195086291        5.7378305524        5.2516351574  W2        1718            0.0000000000
      5153      1718  TIP3      H1            -30.5856886291        4.9720905524        5.6941051574  W2        1718            0.0000000000
      5154      1718  TIP3      H2            -29.3066586291        5.7668505524        5.5381451574  W2        1718            0.0000000000
      5155      1719  TIP3      OH2           -28.2464286291        5.0882705524        6.7873451574  W2        1719            0.0000000000
      5156      1719  TIP3      H1            -27.3480686291        4.8142905524        6.6026851574  W2        1719            0.0000000000
      5157      1719  TIP3      H2            -28.6331186291        4.3458705524        7.2516051574  W2        1719            0.0000000000
      5158      1720  TIP3      OH2           -29.6218986291       21.8897505524      -10.5396548426  W2        1720            0.0000000000
      5159      1720  TIP3      H1            -29.8894386291       22.1760405524       -9.6663448426  W2        1720            0.0000000000
      5160      1720  TIP3      H2            -28.8506386291       21.3436705524      -10.3874048426  W2        1720            0.0000000000
      5161      1721  TIP3      OH2           -19.8251986291        4.4208005524        6.9696251574  W2        1721            0.0000000000
      5162      1721  TIP3      H1            -19.7484786291        3.9948705524        7.8233951574  W2        1721            0.0000000000
      5163      1721  TIP3      H2            -18.9315386291        4.4342705524        6.6269751574  W2        1721            0.0000000000
      5164      1722  TIP3      OH2           -16.6490886291       20.4934305524        5.6620451574  W2        1722            0.0000000000
      5165      1722  TIP3      H1            -17.4308986291       20.3072305524        5.1421051574  W2        1722            0.0000000000
      5166      1722  TIP3      H2            -16.7210986291       21.4228605524        5.8792951574  W2        1722            0.0000000000
      5167      1723  TIP3      OH2            -2.2430486291       14.3798705524       -4.3072348426  W2        1723            0.0000000000
      5168      1723  TIP3      H1             -2.1539386291       15.3236905524       -4.4395248426  W2        1723            0.0000000000
      5169      1723  TIP3      H2             -2.8812886291       14.1045105524       -4.9652948426  W2        1723            0.0000000000
      5170      1724  TIP3      OH2            -3.3099186291       13.6349405524       -0.8884148426  W2        1724            0.0000000000
      5171      1724  TIP3      H1             -3.3481686291       12.9885705524       -0.1834548426  W2        1724            0.0000000000
      5172      1724  TIP3      H2             -3.6322686291       13.1683805524       -1.6595448426  W2        1724            0.0000000000
      5173      1725  TIP3      OH2           -10.9414186291       13.2491505524        0.7045751574  W2        1725            0.0000000000
      5174      1725  TIP3      H1            -10.9002086291       12.6234805524        1.4278151574  W2        1725            0.0000000000
      5175      1725  TIP3      H2            -10.2386486291       13.8730105524        0.8866151574  W2        1725            0.0000000000
      5176      1726  TIP3      OH2             0.3961013709       16.5739805524       -2.5869048426  W2        1726            0.0000000000
      5177      1726  TIP3      H1             -0.0446286291       15.8535805524       -2.1363448426  W2        1726            0.0000000000
      5178      1726  TIP3      H2              0.3830713709       17.2947005524       -1.9571348426  W2        1726            0.0000000000
      5179      1727  TIP3      OH2           -10.0181086291       17.6990405524       -0.7605148426  W2        1727            0.0000000000
      5180      1727  TIP3      H1            -10.3875886291       16.8970905524       -1.1300848426  W2        1727            0.0000000000
      5181      1727  TIP3      H2             -9.0769986291       17.5305305524       -0.7141748426  W2        1727            0.0000000000
      5182      1728  TIP3      OH2           -13.4080586291       11.3593005524       -5.3676348426  W2        1728            0.0000000000
      5183      1728  TIP3      H1            -13.8557186291       12.2051705524       -5.3859848426  W2        1728            0.0000000000
      5184      1728  TIP3      H2            -13.9689386291       10.7797205524       -5.8831248426  W2        1728            0.0000000000
      5185      1729  TIP3      OH2           -12.6974486291       13.5212605524       -3.2418348426  W2        1729            0.0000000000
      5186      1729  TIP3      H1            -12.4840986291       12.7514205524       -2.7145348426  W2        1729            0.0000000000
      5187      1729  TIP3      H2            -11.9596886291       13.6109305524       -3.8450748426  W2        1729            0.0000000000
      5188      1730  TIP3      OH2            -2.4923486291       21.6781505524       -2.3748648426  W2        1730            0.0000000000
      5189      1730  TIP3      H1             -1.8727086291       21.0016205524       -2.6479448426  W2        1730            0.0000000000
      5190      1730  TIP3      H2             -2.7006086291       21.4602305524       -1.4663748426  W2        1730            0.0000000000
      5191      1731  TIP3      OH2            -4.9204786291       16.0670805524       -0.4823148426  W2        1731            0.0000000000
      5192      1731  TIP3      H1             -4.6166886291       15.3812205524       -1.0769048426  W2        1731            0.0000000000
      5193      1731  TIP3      H2             -4.1990786291       16.1859505524        0.1354851574  W2        1731            0.0000000000
      5194      1732  TIP3      OH2             3.7425013709        7.6686105524        0.3783051574  W2        1732            0.0000000000
      5195      1732  TIP3      H1              3.7917213709        8.2787305524        1.1142151574  W2        1732            0.0000000000
      5196      1732  TIP3      H2              4.1680113709        8.1297005524       -0.3445848426  W2        1732            0.0000000000
      5197      1733  TIP3      OH2            -1.7797786291       10.4613205524       -0.1548348426  W2        1733            0.0000000000
      5198      1733  TIP3      H1             -1.6371886291        9.5150205524       -0.1346748426  W2        1733            0.0000000000
      5199      1733  TIP3      H2             -1.8858786291       10.6683005524       -1.0833448426  W2        1733            0.0000000000
      5200      1734  TIP3      OH2            -8.6249486291        8.5629605524       -2.8823548426  W2        1734            0.0000000000
      5201      1734  TIP3      H1             -8.5818386291        9.4228105524       -3.3007248426  W2        1734            0.0000000000
      5202      1734  TIP3      H2             -9.0825386291        8.0104305524       -3.5160348426  W2        1734            0.0000000000
      5203      1735  TIP3      OH2            -0.9026786291        8.6935205524       -4.4815248426  W2        1735            0.0000000000
      5204      1735  TIP3      H1             -0.2562486291        8.3648405524       -3.8567648426  W2        1735            0.0000000000
      5205      1735  TIP3      H2             -0.3927386291        9.2114205524       -5.1043848426  W2        1735            0.0000000000
      5206      1736  TIP3      OH2           -12.0047986291       10.9595405524       -2.1202148426  W2        1736            0.0000000000
      5207      1736  TIP3      H1            -11.3511386291       10.4097105524       -1.6882048426  W2        1736            0.0000000000
      5208      1736  TIP3      H2            -11.9808686291       10.6854405524       -3.0370148426  W2        1736            0.0000000000
      5209      1737  TIP3      OH2            -6.8483486291       12.5096705524       -2.9050648426  W2        1737            0.0000000000
      5210      1737  TIP3      H1             -6.2322486291       11.9832105524       -2.3956648426  W2        1737            0.0000000000
      5211      1737  TIP3      H2             -7.4344686291       11.8695405524       -3.3087048426  W2        1737            0.0000000000
      5212      1738  TIP3      OH2             4.1339613709        9.1465305524        2.6142851574  W2        1738            0.0000000000
      5213      1738  TIP3      H1              3.4454213709        9.8046005524        2.5189451574  W2        1738            0.0000000000
      5214      1738  TIP3      H2              4.1494213709        8.9493205524        3.5508251574  W2        1738            0.0000000000
      5215      1739  TIP3      OH2            -9.8147586291        7.4808005524        1.1917251574  W2        1739            0.0000000000
      5216      1739  TIP3      H1            -10.0335886291        8.0108605524        0.4253251574  W2        1739            0.0000000000
      5217      1739  TIP3      H2            -10.4826686291        7.7073505524        1.8388651574  W2        1739            0.0000000000
      5218      1740  TIP3      OH2            -2.4457786291       16.9809105524       -5.2643648426  W2        1740            0.0000000000
      5219      1740  TIP3      H1             -2.7412686291       16.6581405524       -6.1156748426  W2        1740            0.0000000000
      5220      1740  TIP3      H2             -2.7699986291       17.8805805524       -5.2231048426  W2        1740            0.0000000000
      5221      1741  TIP3      OH2            -7.2456186291       15.1563705524        1.4790951574  W2        1741            0.0000000000
      5222      1741  TIP3      H1             -7.9857086291       15.7545205524        1.5826151574  W2        1741            0.0000000000
      5223      1741  TIP3      H2             -6.5316686291       15.7103305524        1.1634551574  W2        1741            0.0000000000
      5224      1742  TIP3      OH2             0.8611613709        7.9844505524       -2.5009348426  W2        1742            0.0000000000
      5225      1742  TIP3      H1              0.6459613709        7.2187905524       -1.9683348426  W2        1742            0.0000000000
      5226      1742  TIP3      H2              1.5169013709        8.4569105524       -1.9880848426  W2        1742            0.0000000000
      5227      1743  TIP3      OH2           -10.2210286291        9.3729805524       -0.8560548426  W2        1743            0.0000000000
      5228      1743  TIP3      H1             -9.6073986291       10.0057405524       -0.4828148426  W2        1743            0.0000000000
      5229      1743  TIP3      H2             -9.7089586291        8.9004805524       -1.5123648426  W2        1743            0.0000000000
      5230      1744  TIP3      OH2            -8.8381886291       17.1206705524        2.2662451574  W2        1744            0.0000000000
      5231      1744  TIP3      H1             -8.8434286291       18.0000205524        1.8881751574  W2        1744            0.0000000000
      5232      1744  TIP3      H2             -9.6917786291       17.0370805524        2.6912351574  W2        1744            0.0000000000
      5233      1745  TIP3      OH2           -12.7170986291       16.7914605524       -6.9518248426  W2        1745            0.0000000000
      5234      1745  TIP3      H1            -12.9890086291       17.0205605524       -7.8405348426  W2        1745            0.0000000000
      5235      1745  TIP3      H2            -12.6715286291       17.6293405524       -6.4912948426  W2        1745            0.0000000000
      5236      1746  TIP3      OH2             0.9078713709       18.4130505524       -0.2389748426  W2        1746            0.0000000000
      5237      1746  TIP3      H1             -0.0337586291       18.4714405524       -0.0772848426  W2        1746            0.0000000000
      5238      1746  TIP3      H2              1.1844813709       19.3191005524       -0.3760048426  W2        1746            0.0000000000
      5239      1747  TIP3      OH2             1.2085713709        6.6995805524        1.1784151574  W2        1747            0.0000000000
      5240      1747  TIP3      H1              0.4724913709        7.3102905524        1.1405451574  W2        1747            0.0000000000
      5241      1747  TIP3      H2              1.8919713709        7.1144805524        0.6520551574  W2        1747            0.0000000000
      5242      1748  TIP3      OH2            -5.7882886291        4.7863105524       -1.3557848426  W2        1748            0.0000000000
      5243      1748  TIP3      H1             -5.9058686291        3.8379105524       -1.4099548426  W2        1748            0.0000000000
      5244      1748  TIP3      H2             -6.6432786291        5.1189205524       -1.0826748426  W2        1748            0.0000000000
      5245      1749  TIP3      OH2            -0.8400086291       20.1944005524       -3.6138148426  W2        1749            0.0000000000
      5246      1749  TIP3      H1             -0.4147786291       19.4871905524       -4.0988548426  W2        1749            0.0000000000
      5247      1749  TIP3      H2             -0.5230086291       20.9956705524       -4.0305948426  W2        1749            0.0000000000
      5248      1750  TIP3      OH2             0.3196413709       18.0952505524       -5.1051548426  W2        1750            0.0000000000
      5249      1750  TIP3      H1              0.0621213709       17.4052605524       -5.7165648426  W2        1750            0.0000000000
      5250      1750  TIP3      H2              0.3907213709       17.6523705524       -4.2595648426  W2        1750            0.0000000000
      5251      1751  TIP3      OH2             2.0056613709       16.6619205524        3.3721951574  W2        1751            0.0000000000
      5252      1751  TIP3      H1              2.1452913709       16.0701705524        2.6328951574  W2        1751            0.0000000000
      5253      1751  TIP3      H2              2.1729413709       17.5345105524        3.0160751574  W2        1751            0.0000000000
      5254      1752  TIP3      OH2            -3.5217986291       13.6238705524       -6.8552048426  W2        1752            0.0000000000
      5255      1752  TIP3      H1             -4.2332486291       14.1588405524       -7.2071548426  W2        1752            0.0000000000
      5256      1752  TIP3      H2             -2.8308386291       13.6790805524       -7.5153148426  W2        1752            0.0000000000
      5257      1753  TIP3      OH2            -3.4678786291       12.0813005524       -9.8167048426  W2        1753            0.0000000000
      5258      1753  TIP3      H1             -2.7668886291       12.1039905524       -9.1653048426  W2        1753            0.0000000000
      5259      1753  TIP3      H2             -3.1655886291       11.4532705524      -10.4727748426  W2        1753            0.0000000000
      5260      1754  TIP3      OH2             3.8475913709       13.0017205524        1.4382351574  W2        1754            0.0000000000
      5261      1754  TIP3      H1              3.1950013709       13.6962805524        1.5273251574  W2        1754            0.0000000000
      5262      1754  TIP3      H2              4.3126213709       13.2118105524        0.6283951574  W2        1754            0.0000000000
      5263      1755  TIP3      OH2            -0.1160286291       13.8332005524       -5.9036148426  W2        1755            0.0000000000
      5264      1755  TIP3      H1             -0.8479286291       14.0615705524       -5.3305548426  W2        1755            0.0000000000
      5265      1755  TIP3      H2              0.3311913709       13.1194705524       -5.4488648426  W2        1755            0.0000000000
      5266      1756  TIP3      OH2            -0.2186786291       12.0074605524        3.1640851574  W2        1756            0.0000000000
      5267      1756  TIP3      H1             -0.1387686291       12.7709005524        3.7359351574  W2        1756            0.0000000000
      5268      1756  TIP3      H2             -0.8199086291       12.2867005524        2.4735951574  W2        1756            0.0000000000
      5269      1757  TIP3      OH2            -8.4706586291       14.4638205524       -4.0211148426  W2        1757            0.0000000000
      5270      1757  TIP3      H1             -8.8011386291       14.0931605524       -4.8394148426  W2        1757            0.0000000000
      5271      1757  TIP3      H2             -7.8822486291       13.7932205524       -3.6742848426  W2        1757            0.0000000000
      5272      1758  TIP3      OH2            -7.1039086291       17.8918805524       -1.3398948426  W2        1758            0.0000000000
      5273      1758  TIP3      H1             -7.1987786291       17.3131905524       -2.0964348426  W2        1758            0.0000000000
      5274      1758  TIP3      H2             -6.3745486291       17.5204505524       -0.8436148426  W2        1758            0.0000000000
      5275      1759  TIP3      OH2            -8.1041086291       13.2323805524       -0.3876148426  W2        1759            0.0000000000
      5276      1759  TIP3      H1             -7.5388586291       13.3538005524       -1.1504948426  W2        1759            0.0000000000
      5277      1759  TIP3      H2             -7.7852186291       13.8698805524        0.2512351574  W2        1759            0.0000000000
      5278      1760  TIP3      OH2            -1.7948886291       18.7355705524        0.3464351574  W2        1760            0.0000000000
      5279      1760  TIP3      H1             -2.0352286291       19.3978805524        0.9943551574  W2        1760            0.0000000000
      5280      1760  TIP3      H2             -1.9930686291       17.9010905524        0.7713951574  W2        1760            0.0000000000
      5281      1761  TIP3      OH2            -7.2240386291       17.6316505524        4.3295751574  W2        1761            0.0000000000
      5282      1761  TIP3      H1             -7.5352886291       18.4139705524        4.7848951574  W2        1761            0.0000000000
      5283      1761  TIP3      H2             -7.8740186291       17.4785605524        3.6437751574  W2        1761            0.0000000000
      5284      1762  TIP3      OH2            -1.2450786291       12.9954905524       -8.2184948426  W2        1762            0.0000000000
      5285      1762  TIP3      H1             -0.6655286291       13.1455205524       -7.4716048426  W2        1762            0.0000000000
      5286      1762  TIP3      H2             -0.8310786291       13.4662305524       -8.9418548426  W2        1762            0.0000000000
      5287      1763  TIP3      OH2           -10.3040486291       13.8297605524        3.5581451574  W2        1763            0.0000000000
      5288      1763  TIP3      H1            -10.2337286291       14.4804405524        4.2566451574  W2        1763            0.0000000000
      5289      1763  TIP3      H2            -11.1948286291       13.9325105524        3.2232351574  W2        1763            0.0000000000
      5290      1764  TIP3      OH2            -3.5185886291       19.7323405524       -4.7831848426  W2        1764            0.0000000000
      5291      1764  TIP3      H1             -3.0448286291       20.0279705524       -4.0057648426  W2        1764            0.0000000000
      5292      1764  TIP3      H2             -4.0816586291       20.4705005524       -5.0162248426  W2        1764            0.0000000000
      5293      1765  TIP3      OH2            -8.9844486291       19.7031505524        5.0929551574  W2        1765            0.0000000000
      5294      1765  TIP3      H1             -8.9769186291       19.5671205524        4.1455051574  W2        1765            0.0000000000
      5295      1765  TIP3      H2             -9.9004086291       19.5859605524        5.3449551574  W2        1765            0.0000000000
      5296      1766  TIP3      OH2             2.4537613709        4.7455305524       -8.4055248426  W2        1766            0.0000000000
      5297      1766  TIP3      H1              1.5538313709        4.8844305524       -8.1104648426  W2        1766            0.0000000000
      5298      1766  TIP3      H2              2.7056013709        5.5769905524       -8.8073548426  W2        1766            0.0000000000
      5299      1767  TIP3      OH2            -9.4803886291       13.5332505524       -6.4318348426  W2        1767            0.0000000000
      5300      1767  TIP3      H1             -9.7722586291       14.3014205524       -6.9227048426  W2        1767            0.0000000000
      5301      1767  TIP3      H2            -10.1548686291       12.8738705524       -6.5946948426  W2        1767            0.0000000000
      5302      1768  TIP3      OH2             3.6429013709       19.1117705524      -10.0291348426  W2        1768            0.0000000000
      5303      1768  TIP3      H1              3.7162513709       20.0507905524       -9.8586048426  W2        1768            0.0000000000
      5304      1768  TIP3      H2              4.5484113709       18.8066305524      -10.0854048426  W2        1768            0.0000000000
      5305      1769  TIP3      OH2           -13.3873786291       15.8961705524        2.3831451574  W2        1769            0.0000000000
      5306      1769  TIP3      H1            -13.8885386291       15.8681105524        1.5681151574  W2        1769            0.0000000000
      5307      1769  TIP3      H2            -13.3820086291       14.9904905524        2.6928751574  W2        1769            0.0000000000
      5308      1770  TIP3      OH2           -13.6371086291       18.6765505524       -0.7328348426  W2        1770            0.0000000000
      5309      1770  TIP3      H1            -12.6910486291       18.5322505524       -0.7518848426  W2        1770            0.0000000000
      5310      1770  TIP3      H2            -13.7494786291       19.4608305524       -0.1957148426  W2        1770            0.0000000000
      5311      1771  TIP3      OH2             4.5607413709       19.3425205524        4.9495351574  W2        1771            0.0000000000
      5312      1771  TIP3      H1              4.5114213709       18.3873305524        4.9122951574  W2        1771            0.0000000000
      5313      1771  TIP3      H2              3.7339713709       19.6100505524        5.3509151574  W2        1771            0.0000000000
      5314      1772  TIP3      OH2            -4.4608586291       18.9164405524        3.8256751574  W2        1772            0.0000000000
      5315      1772  TIP3      H1             -4.3733986291       19.7429005524        4.3005851574  W2        1772            0.0000000000
      5316      1772  TIP3      H2             -5.3243486291       18.5868205524        4.0746051574  W2        1772            0.0000000000
      5317      1773  TIP3      OH2            -4.0462786291       22.6888105524       -6.3682648426  W2        1773            0.0000000000
      5318      1773  TIP3      H1             -4.1216786291       22.5675305524       -7.3147448426  W2        1773            0.0000000000
      5319      1773  TIP3      H2             -4.0134086291       23.6380805524       -6.2498048426  W2        1773            0.0000000000
      5320      1774  TIP3      OH2           -10.3928986291       21.4775105524       -4.5873648426  W2        1774            0.0000000000
      5321      1774  TIP3      H1            -10.2408586291       21.1295505524       -3.7087148426  W2        1774            0.0000000000
      5322      1774  TIP3      H2            -11.2438586291       21.1212405524       -4.8426448426  W2        1774            0.0000000000
      5323      1775  TIP3      OH2            -0.9446786291       21.8428305524       -9.3660248426  W2        1775            0.0000000000
      5324      1775  TIP3      H1             -0.5698386291       21.0984405524       -9.8367648426  W2        1775            0.0000000000
      5325      1775  TIP3      H2             -0.9403086291       21.5728905524       -8.4476948426  W2        1775            0.0000000000
      5326      1776  TIP3      OH2            -1.2758686291       21.7685405524       -6.6168048426  W2        1776            0.0000000000
      5327      1776  TIP3      H1             -2.2108886291       21.8687305524       -6.4381048426  W2        1776            0.0000000000
      5328      1776  TIP3      H2             -0.9956786291       21.0591405524       -6.0384848426  W2        1776            0.0000000000
      5329      1777  TIP3      OH2             1.7127213709       10.8357705524        5.4297551574  W2        1777            0.0000000000
      5330      1777  TIP3      H1              1.3054013709       11.3163305524        4.7090851574  W2        1777            0.0000000000
      5331      1777  TIP3      H2              1.7532913709        9.9303705524        5.1218351574  W2        1777            0.0000000000
      5332      1778  TIP3      OH2           -11.1383286291       17.2197105524        3.4264251574  W2        1778            0.0000000000
      5333      1778  TIP3      H1            -10.9221986291       16.8582705524        4.2860051574  W2        1778            0.0000000000
      5334      1778  TIP3      H2            -11.9938586291       16.8450905524        3.2167751574  W2        1778            0.0000000000
      5335      1779  TIP3      OH2            -8.5195286291        5.6897605524       -0.5781548426  W2        1779            0.0000000000
      5336      1779  TIP3      H1             -9.3811586291        5.6025805524       -0.9858648426  W2        1779            0.0000000000
      5337      1779  TIP3      H2             -8.5419586291        6.5457705524       -0.1503948426  W2        1779            0.0000000000
      5338      1780  TIP3      OH2            -3.8567486291        5.4118005524        2.7965451574  W2        1780            0.0000000000
      5339      1780  TIP3      H1             -3.4364386291        4.9965105524        3.5496051574  W2        1780            0.0000000000
      5340      1780  TIP3      H2             -4.7897886291        5.2331305524        2.9137451574  W2        1780            0.0000000000
      5341      1781  TIP3      OH2            -0.5302586291        9.1673205524        3.6499951574  W2        1781            0.0000000000
      5342      1781  TIP3      H1             -1.0443086291        9.0415405524        4.4475951574  W2        1781            0.0000000000
      5343      1781  TIP3      H2             -0.6857886291       10.0796305524        3.4056151574  W2        1781            0.0000000000
      5344      1782  TIP3      OH2             0.2322313709       14.0283205524      -10.5887048426  W2        1782            0.0000000000
      5345      1782  TIP3      H1              0.2743113709       13.8057105524      -11.5187048426  W2        1782            0.0000000000
      5346      1782  TIP3      H2              1.0814413709       14.4270305524      -10.3987148426  W2        1782            0.0000000000
      5347      1783  TIP3      OH2            -4.1950186291        7.9041405524       -9.9183748426  W2        1783            0.0000000000
      5348      1783  TIP3      H1             -4.4485386291        7.9233005524       -8.9955648426  W2        1783            0.0000000000
      5349      1783  TIP3      H2             -4.4518086291        7.0326805524      -10.2197548426  W2        1783            0.0000000000
      5350      1784  TIP3      OH2            -8.4285186291       10.6552105524        0.5168651574  W2        1784            0.0000000000
      5351      1784  TIP3      H1             -9.0703086291       10.6149405524        1.2258751574  W2        1784            0.0000000000
      5352      1784  TIP3      H2             -8.3913186291       11.5816805524        0.2791651574  W2        1784            0.0000000000
      5353      1785  TIP3      OH2            -8.4316086291       10.8762205524       -4.5711348426  W2        1785            0.0000000000
      5354      1785  TIP3      H1             -9.3243186291       10.5358305524       -4.6297548426  W2        1785            0.0000000000
      5355      1785  TIP3      H2             -7.9809486291       10.4993105524       -5.3268148426  W2        1785            0.0000000000
      5356      1786  TIP3      OH2            -2.8960586291       11.2922505524       -5.7540548426  W2        1786            0.0000000000
      5357      1786  TIP3      H1             -3.3050286291       12.1071105524       -6.0455748426  W2        1786            0.0000000000
      5358      1786  TIP3      H2             -2.1754386291       11.1522605524       -6.3683448426  W2        1786            0.0000000000
      5359      1787  TIP3      OH2            -3.7938986291       11.4678905524        5.7340151574  W2        1787            0.0000000000
      5360      1787  TIP3      H1             -4.3565186291       10.7630505524        6.0547951574  W2        1787            0.0000000000
      5361      1787  TIP3      H2             -2.9675586291       11.3470805524        6.2017751574  W2        1787            0.0000000000
      5362      1788  TIP3      OH2            -1.8912886291       10.7382905524       -2.9400848426  W2        1788            0.0000000000
      5363      1788  TIP3      H1             -2.0868386291       11.3439705524       -3.6550248426  W2        1788            0.0000000000
      5364      1788  TIP3      H2             -1.7100286291        9.9048105524       -3.3744548426  W2        1788            0.0000000000
      5365      1789  TIP3      OH2           -10.6784686291       10.9755605524        2.3840651574  W2        1789            0.0000000000
      5366      1789  TIP3      H1            -10.7165286291       11.3757205524        3.2527751574  W2        1789            0.0000000000
      5367      1789  TIP3      H2            -11.1693586291       10.1588005524        2.4743551574  W2        1789            0.0000000000
      5368      1790  TIP3      OH2            -7.3127286291        8.3497905524      -10.8173348426  W2        1790            0.0000000000
      5369      1790  TIP3      H1             -7.7436586291        7.9048005524      -10.0875948426  W2        1790            0.0000000000
      5370      1790  TIP3      H2             -8.0308586291        8.7214205524      -11.3295848426  W2        1790            0.0000000000
      5371      1791  TIP3      OH2           -14.0703886291        8.0917405524       -3.7654648426  W2        1791            0.0000000000
      5372      1791  TIP3      H1            -13.4396186291        8.0629505524       -3.0460748426  W2        1791            0.0000000000
      5373      1791  TIP3      H2            -13.6209586291        7.6666105524       -4.4958748426  W2        1791            0.0000000000
      5374      1792  TIP3      OH2           -12.7961786291        8.8379405524       -8.3414248426  W2        1792            0.0000000000
      5375      1792  TIP3      H1            -12.3220086291        9.4289305524       -8.9263348426  W2        1792            0.0000000000
      5376      1792  TIP3      H2            -13.5135386291        9.3682305524       -7.9944148426  W2        1792            0.0000000000
      5377      1793  TIP3      OH2            -2.6273686291       12.3764205524        1.7311551574  W2        1793            0.0000000000
      5378      1793  TIP3      H1             -2.3038886291       11.7453905524        1.0882051574  W2        1793            0.0000000000
      5379      1793  TIP3      H2             -3.0674386291       11.8416405524        2.3918951574  W2        1793            0.0000000000
      5380      1794  TIP3      OH2            -5.8500786291        8.3039705524       -3.4847248426  W2        1794            0.0000000000
      5381      1794  TIP3      H1             -6.7609686291        8.3606505524       -3.1961248426  W2        1794            0.0000000000
      5382      1794  TIP3      H2             -5.3447886291        8.2435205524       -2.6740048426  W2        1794            0.0000000000
      5383      1795  TIP3      OH2           -11.0217386291        9.9326005524       -4.6579648426  W2        1795            0.0000000000
      5384      1795  TIP3      H1            -11.9109386291       10.0321505524       -4.9980048426  W2        1795            0.0000000000
      5385      1795  TIP3      H2            -10.7252486291        9.0909005524       -5.0041748426  W2        1795            0.0000000000
      5386      1796  TIP3      OH2            -7.3685586291        9.9328605524       -7.0015048426  W2        1796            0.0000000000
      5387      1796  TIP3      H1             -6.4370086291       10.0618605524       -6.8231948426  W2        1796            0.0000000000
      5388      1796  TIP3      H2             -7.5835286291       10.6022905524       -7.6510348426  W2        1796            0.0000000000
      5389      1797  TIP3      OH2            -1.4448886291        7.5386005524       -0.2205448426  W2        1797            0.0000000000
      5390      1797  TIP3      H1             -2.1217286291        7.6699105524        0.4434251574  W2        1797            0.0000000000
      5391      1797  TIP3      H2             -1.9303986291        7.3835505524       -1.0307748426  W2        1797            0.0000000000
      5392      1798  TIP3      OH2            -8.6945386291       11.1270805524       -9.4348948426  W2        1798            0.0000000000
      5393      1798  TIP3      H1             -9.2370286291       10.7474605524      -10.1261348426  W2        1798            0.0000000000
      5394      1798  TIP3      H2             -7.8610486291       11.3215505524       -9.8634848426  W2        1798            0.0000000000
      5395      1799  TIP3      OH2             1.8426213709       23.2101405524        6.0562151574  W2        1799            0.0000000000
      5396      1799  TIP3      H1              2.0424913709       23.6343305524        5.2217451574  W2        1799            0.0000000000
      5397      1799  TIP3      H2              2.4979913709       23.5539605524        6.6632551574  W2        1799            0.0000000000
      5398      1800  TIP3      OH2           -10.5593986291       15.6842705524        5.6642651574  W2        1800            0.0000000000
      5399      1800  TIP3      H1             -9.8271586291       15.9388605524        6.2257151574  W2        1800            0.0000000000
      5400      1800  TIP3      H2            -11.3395286291       15.8888105524        6.1798051574  W2        1800            0.0000000000
      5401      1801  TIP3      OH2            -4.5301086291       11.0912705524       -1.5977648426  W2        1801            0.0000000000
      5402      1801  TIP3      H1             -3.9657686291       10.5449305524       -2.1448048426  W2        1801            0.0000000000
      5403      1801  TIP3      H2             -4.6777686291       10.5694605524       -0.8090048426  W2        1801            0.0000000000
      5404      1802  TIP3      OH2            -9.5281386291        7.2278805524       -5.1792848426  W2        1802            0.0000000000
      5405      1802  TIP3      H1             -9.8451886291        6.3254105524       -5.2147448426  W2        1802            0.0000000000
      5406      1802  TIP3      H2             -8.7467286291        7.2296205524       -5.7321248426  W2        1802            0.0000000000
      5407      1803  TIP3      OH2            -5.9035186291        9.4798805524        0.8162751574  W2        1803            0.0000000000
      5408      1803  TIP3      H1             -6.7389886291        9.9338305524        0.9265151574  W2        1803            0.0000000000
      5409      1803  TIP3      H2             -5.3794586291        9.7557305524        1.5682651574  W2        1803            0.0000000000
      5410      1804  TIP3      OH2            -5.3592586291       15.6926505524       -7.4990848426  W2        1804            0.0000000000
      5411      1804  TIP3      H1             -6.1041586291       15.1851805524       -7.8212948426  W2        1804            0.0000000000
      5412      1804  TIP3      H2             -5.4935386291       15.7414505524       -6.5526048426  W2        1804            0.0000000000
      5413      1805  TIP3      OH2             1.7906313709       14.8254705524        1.2876751574  W2        1805            0.0000000000
      5414      1805  TIP3      H1              2.4325113709       15.2821005524        0.7438951574  W2        1805            0.0000000000
      5415      1805  TIP3      H2              0.9603213709       14.9387105524        0.8250851574  W2        1805            0.0000000000
      5416      1806  TIP3      OH2            -1.4615786291        8.5066405524       -9.2998248426  W2        1806            0.0000000000
      5417      1806  TIP3      H1             -2.4001586291        8.6182005524       -9.4509448426  W2        1806            0.0000000000
      5418      1806  TIP3      H2             -1.1643686291        9.3633305524       -8.9932548426  W2        1806            0.0000000000
      5419      1807  TIP3      OH2            -3.8400486291       15.8769805524        3.7378251574  W2        1807            0.0000000000
      5420      1807  TIP3      H1             -4.1854386291       15.4952205524        4.5447851574  W2        1807            0.0000000000
      5421      1807  TIP3      H2             -4.0400386291       16.8103405524        3.8091151574  W2        1807            0.0000000000
      5422      1808  TIP3      OH2            -0.7432286291       10.3739105524       -7.6390848426  W2        1808            0.0000000000
      5423      1808  TIP3      H1              0.1486713709       10.2364105524       -7.3199648426  W2        1808            0.0000000000
      5424      1808  TIP3      H2             -0.6868686291       11.1645205524       -8.1757348426  W2        1808            0.0000000000
      5425      1809  TIP3      OH2           -10.2344286291       14.9876505524       -1.7292948426  W2        1809            0.0000000000
      5426      1809  TIP3      H1             -9.4897086291       14.9852205524       -2.3306448426  W2        1809            0.0000000000
      5427      1809  TIP3      H2            -10.1567686291       14.1640305524       -1.2477848426  W2        1809            0.0000000000
      5428      1810  TIP3      OH2            -3.2338486291       17.1510805524       -8.4736248426  W2        1810            0.0000000000
      5429      1810  TIP3      H1             -3.5290086291       17.9778705524       -8.0921448426  W2        1810            0.0000000000
      5430      1810  TIP3      H2             -3.9368486291       16.5317705524       -8.2774848426  W2        1810            0.0000000000
      5431      1811  TIP3      OH2           -13.2264586291       13.4483405524        3.5855551574  W2        1811            0.0000000000
      5432      1811  TIP3      H1            -13.0035986291       13.0303005524        4.4173051574  W2        1811            0.0000000000
      5433      1811  TIP3      H2            -13.8284486291       12.8358405524        3.1628351574  W2        1811            0.0000000000
      5434      1812  TIP3      OH2            -6.2099686291       12.9653305524        5.7985251574  W2        1812            0.0000000000
      5435      1812  TIP3      H1             -6.5058886291       12.7996305524        4.9034351574  W2        1812            0.0000000000
      5436      1812  TIP3      H2             -5.2784486291       12.7453605524        5.7879151574  W2        1812            0.0000000000
      5437      1813  TIP3      OH2            -1.5896886291       18.3385305524        3.6883251574  W2        1813            0.0000000000
      5438      1813  TIP3      H1             -2.4902586291       18.5217905524        3.4207151574  W2        1813            0.0000000000
      5439      1813  TIP3      H2             -1.5555786291       18.5974605524        4.6092051574  W2        1813            0.0000000000
      5440      1814  TIP3      OH2             4.1416413709       10.5833205524       -7.9444148426  W2        1814            0.0000000000
      5441      1814  TIP3      H1              3.5872713709       10.1871205524       -8.6166648426  W2        1814            0.0000000000
      5442      1814  TIP3      H2              4.2420013709       11.4938405524       -8.2220848426  W2        1814            0.0000000000
      5443      1815  TIP3      OH2             4.1048413709       16.3834905524        4.8927351574  W2        1815            0.0000000000
      5444      1815  TIP3      H1              3.2536913709       16.6218705524        4.5253751574  W2        1815            0.0000000000
      5445      1815  TIP3      H2              4.6951813709       16.3668105524        4.1394451574  W2        1815            0.0000000000
      5446      1816  TIP3      OH2             2.4368113709       19.3693605524       -7.4792048426  W2        1816            0.0000000000
      5447      1816  TIP3      H1              2.0639213709       18.5437405524       -7.1701448426  W2        1816            0.0000000000
      5448      1816  TIP3      H2              2.7141613709       19.1863005524       -8.3768648426  W2        1816            0.0000000000
      5449      1817  TIP3      OH2            -0.4027986291       14.1773105524       -0.4580148426  W2        1817            0.0000000000
      5450      1817  TIP3      H1             -1.3311086291       13.9455005524       -0.4850848426  W2        1817            0.0000000000
      5451      1817  TIP3      H2              0.0483113709       13.4002905524       -0.7881348426  W2        1817            0.0000000000
      5452      1818  TIP3      OH2            -7.8594886291       18.5054705524       -4.3251448426  W2        1818            0.0000000000
      5453      1818  TIP3      H1             -7.3322686291       19.2789105524       -4.5252648426  W2        1818            0.0000000000
      5454      1818  TIP3      H2             -8.7396386291       18.7303905524       -4.6267448426  W2        1818            0.0000000000
      5455      1819  TIP3      OH2           -12.1047186291       13.3678805524       -9.7379048426  W2        1819            0.0000000000
      5456      1819  TIP3      H1            -11.4887286291       13.9946005524       -9.3584248426  W2        1819            0.0000000000
      5457      1819  TIP3      H2            -12.9664586291       13.6838605524       -9.4662548426  W2        1819            0.0000000000
      5458      1820  TIP3      OH2            -6.4322586291       16.1684605524       -4.7487148426  W2        1820            0.0000000000
      5459      1820  TIP3      H1             -6.6732586291       17.0939005524       -4.7071848426  W2        1820            0.0000000000
      5460      1820  TIP3      H2             -7.1728986291       15.7095905524       -4.3523248426  W2        1820            0.0000000000
      5461      1821  TIP3      OH2            -5.9175986291       20.3178205524        1.5663951574  W2        1821            0.0000000000
      5462      1821  TIP3      H1             -5.5551286291       21.1723805524        1.3328351574  W2        1821            0.0000000000
      5463      1821  TIP3      H2             -5.3860786291       20.0259805524        2.3070251574  W2        1821            0.0000000000
      5464      1822  TIP3      OH2            -7.7491786291       21.1902205524       -5.2034948426  W2        1822            0.0000000000
      5465      1822  TIP3      H1             -8.6991286291       21.2959605524       -5.1521648426  W2        1822            0.0000000000
      5466      1822  TIP3      H2             -7.3973686291       22.0109605524       -4.8587448426  W2        1822            0.0000000000
      5467      1823  TIP3      OH2            -2.3735186291       16.4168905524        1.2669551574  W2        1823            0.0000000000
      5468      1823  TIP3      H1             -2.7993886291       16.1890605524        2.0933551574  W2        1823            0.0000000000
      5469      1823  TIP3      H2             -1.7929386291       15.6780705524        1.0844851574  W2        1823            0.0000000000
      5470      1824  TIP3      OH2            -0.1706286291       17.3459405524       -9.6591448426  W2        1824            0.0000000000
      5471      1824  TIP3      H1              0.1826813709       16.9659205524       -8.8547948426  W2        1824            0.0000000000
      5472      1824  TIP3      H2             -1.1192786291       17.2524205524       -9.5722148426  W2        1824            0.0000000000
      5473      1825  TIP3      OH2             0.2849013709       20.9688405524        3.7364351574  W2        1825            0.0000000000
      5474      1825  TIP3      H1             -0.3167786291       20.4131305524        3.2410651574  W2        1825            0.0000000000
      5475      1825  TIP3      H2              0.5662713709       21.6358205524        3.1101751574  W2        1825            0.0000000000
      5476      1826  TIP3      OH2             4.3328113709       21.8251905524       -9.4581248426  W2        1826            0.0000000000
      5477      1826  TIP3      H1              5.0766013709       22.4112405524       -9.5979648426  W2        1826            0.0000000000
      5478      1826  TIP3      H2              3.6386213709       22.3937705524       -9.1248848426  W2        1826            0.0000000000
      5479      1827  TIP3      OH2           -11.5925086291        8.2016105524        3.1436951574  W2        1827            0.0000000000
      5480      1827  TIP3      H1            -12.4852786291        8.5401505524        3.0760951574  W2        1827            0.0000000000
      5481      1827  TIP3      H2            -11.6912286291        7.3462205524        3.5617751574  W2        1827            0.0000000000
      5482      1828  TIP3      OH2             0.6953013709       16.0181405524       -7.4323548426  W2        1828            0.0000000000
      5483      1828  TIP3      H1              0.4180613709       15.2900705524       -6.8762448426  W2        1828            0.0000000000
      5484      1828  TIP3      H2              1.6226013709       16.1373405524       -7.2270948426  W2        1828            0.0000000000
      5485      1829  TIP3      OH2           -11.9413086291       20.0060505524        1.5786351574  W2        1829            0.0000000000
      5486      1829  TIP3      H1            -11.7242786291       19.0742905524        1.5476051574  W2        1829            0.0000000000
      5487      1829  TIP3      H2            -11.6949586291       20.2805505524        2.4619151574  W2        1829            0.0000000000
      5488      1830  TIP3      OH2            -6.0798486291       18.4575505524      -11.2121448426  W2        1830            0.0000000000
      5489      1830  TIP3      H1             -5.8408686291       17.7093605524      -11.7592548426  W2        1830            0.0000000000
      5490      1830  TIP3      H2             -6.3487186291       18.0697205524      -10.3793648426  W2        1830            0.0000000000
      5491      1831  TIP3      OH2            -7.1427886291       18.0279305524       -8.7558848426  W2        1831            0.0000000000
      5492      1831  TIP3      H1             -6.9959886291       17.5079105524       -7.9657948426  W2        1831            0.0000000000
      5493      1831  TIP3      H2             -7.1456186291       18.9346905524       -8.4492948426  W2        1831            0.0000000000
      5494      1832  TIP3      OH2           -10.6896786291       15.2802605524       -8.2453448426  W2        1832            0.0000000000
      5495      1832  TIP3      H1            -11.3757486291       15.6325105524       -7.6783748426  W2        1832            0.0000000000
      5496      1832  TIP3      H2            -10.1668886291       16.0432205524       -8.4919148426  W2        1832            0.0000000000
      5497      1833  TIP3      OH2            -2.8581686291        7.9426405524        2.0335551574  W2        1833            0.0000000000
      5498      1833  TIP3      H1             -2.1593786291        8.0165105524        2.6835251574  W2        1833            0.0000000000
      5499      1833  TIP3      H2             -3.2390286291        7.0781405524        2.1878451574  W2        1833            0.0000000000
      5500      1834  TIP3      OH2            -2.0736786291        7.5948105524       -6.8692148426  W2        1834            0.0000000000
      5501      1834  TIP3      H1             -1.8538486291        8.0663505524       -7.6726748426  W2        1834            0.0000000000
      5502      1834  TIP3      H2             -1.5152786291        7.9890705524       -6.1991548426  W2        1834            0.0000000000
      5503      1835  TIP3      OH2            -4.4050686291       19.7252905524       -8.0064648426  W2        1835            0.0000000000
      5504      1835  TIP3      H1             -5.2214586291       20.2222605524       -7.9540348426  W2        1835            0.0000000000
      5505      1835  TIP3      H2             -3.8754386291       20.2006405524       -8.6465848426  W2        1835            0.0000000000
      5506      1836  TIP3      OH2            -4.8736886291        9.3226905524       -6.0343748426  W2        1836            0.0000000000
      5507      1836  TIP3      H1             -4.0614286291        9.8270105524       -5.9882048426  W2        1836            0.0000000000
      5508      1836  TIP3      H2             -5.1183886291        9.1776605524       -5.1204148426  W2        1836            0.0000000000
      5509      1837  TIP3      OH2            -4.3380486291       10.3089605524        3.1502851574  W2        1837            0.0000000000
      5510      1837  TIP3      H1             -4.2190186291       10.8825005524        3.9073251574  W2        1837            0.0000000000
      5511      1837  TIP3      H2             -3.6825886291        9.6209005524        3.2650651574  W2        1837            0.0000000000
      5512      1838  TIP3      OH2            -3.9900186291        6.4039905524       -5.0962648426  W2        1838            0.0000000000
      5513      1838  TIP3      H1             -4.3366686291        7.0210505524       -4.4518348426  W2        1838            0.0000000000
      5514      1838  TIP3      H2             -3.3313286291        6.9045605524       -5.5777148426  W2        1838            0.0000000000
      5515      1839  TIP3      OH2            -7.0667586291       20.7690105524       -8.0247748426  W2        1839            0.0000000000
      5516      1839  TIP3      H1             -6.9058886291       21.5687605524       -8.5255148426  W2        1839            0.0000000000
      5517      1839  TIP3      H2             -7.2639786291       21.0756105524       -7.1397148426  W2        1839            0.0000000000
      5518      1840  TIP3      OH2            -8.3323186291        7.4669305524       -8.4090148426  W2        1840            0.0000000000
      5519      1840  TIP3      H1             -8.4158386291        8.3552405524       -8.0623748426  W2        1840            0.0000000000
      5520      1840  TIP3      H2             -7.4422886291        7.2016005524       -8.1773348426  W2        1840            0.0000000000
      5521      1841  TIP3      OH2             1.8665313709        8.2159905524        3.9852551574  W2        1841            0.0000000000
      5522      1841  TIP3      H1              0.9501113709        8.4781605524        3.8976251574  W2        1841            0.0000000000
      5523      1841  TIP3      H2              2.2020313709        8.2128905524        3.0887851574  W2        1841            0.0000000000
      5524      1842  TIP3      OH2             0.4686313709       11.9660905524       -1.9190148426  W2        1842            0.0000000000
      5525      1842  TIP3      H1             -0.3289286291       11.5511105524       -2.2475148426  W2        1842            0.0000000000
      5526      1842  TIP3      H2              0.9137413709       11.2754605524       -1.4279648426  W2        1842            0.0000000000
      5527      1843  TIP3      OH2           -10.0737886291       17.8941505524       -9.3485648426  W2        1843            0.0000000000
      5528      1843  TIP3      H1             -9.4816386291       18.5936305524       -9.0723248426  W2        1843            0.0000000000
      5529      1843  TIP3      H2             -9.6144886291       17.4611005524      -10.0681048426  W2        1843            0.0000000000
      5530      1844  TIP3      OH2           -11.7578686291       10.5584505524      -10.2326248426  W2        1844            0.0000000000
      5531      1844  TIP3      H1            -11.8026086291       11.4977605524      -10.0539248426  W2        1844            0.0000000000
      5532      1844  TIP3      H2            -12.6455486291       10.3229405524      -10.5024148426  W2        1844            0.0000000000
      5533      1845  TIP3      OH2             1.5550913709       21.2223405524       -0.2966648426  W2        1845            0.0000000000
      5534      1845  TIP3      H1              1.3995213709       21.9007805524       -0.9537348426  W2        1845            0.0000000000
      5535      1845  TIP3      H2              2.4877313709       21.2942705524       -0.0936048426  W2        1845            0.0000000000
      5536      1846  TIP3      OH2           -10.9496686291        5.3401105524       -1.5595248426  W2        1846            0.0000000000
      5537      1846  TIP3      H1            -11.1786886291        5.3993605524       -2.4870248426  W2        1846            0.0000000000
      5538      1846  TIP3      H2            -11.3923286291        4.5486605524       -1.2531148426  W2        1846            0.0000000000
      5539      1847  TIP3      OH2           -12.0193386291       19.2808205524       -5.3989448426  W2        1847            0.0000000000
      5540      1847  TIP3      H1            -12.8514786291       19.7530905524       -5.3718048426  W2        1847            0.0000000000
      5541      1847  TIP3      H2            -11.4735086291       19.7905805524       -5.9976348426  W2        1847            0.0000000000
      5542      1848  TIP3      OH2           -12.7309686291       21.8931905524        5.9308551574  W2        1848            0.0000000000
      5543      1848  TIP3      H1            -12.1907486291       21.6765905524        6.6907751574  W2        1848            0.0000000000
      5544      1848  TIP3      H2            -13.2121686291       21.0877905524        5.7411051574  W2        1848            0.0000000000
      5545      1849  TIP3      OH2            -8.1336286291       20.8126305524        7.5512751574  W2        1849            0.0000000000
      5546      1849  TIP3      H1             -7.3659086291       20.3537105524        7.8921951574  W2        1849            0.0000000000
      5547      1849  TIP3      H2             -8.1550086291       20.5866105524        6.6213951574  W2        1849            0.0000000000
      5548      1850  TIP3      OH2            -4.0416686291       20.3206905524      -11.0735448426  W2        1850            0.0000000000
      5549      1850  TIP3      H1             -4.6855686291       19.6895505524      -10.7521748426  W2        1850            0.0000000000
      5550      1850  TIP3      H2             -3.2798386291       19.7894905524      -11.3051948426  W2        1850            0.0000000000
      5551      1851  TIP3      OH2            -1.5567586291       19.1927405524        6.2804251574  W2        1851            0.0000000000
      5552      1851  TIP3      H1             -1.9078086291       18.3360405524        6.5234651574  W2        1851            0.0000000000
      5553      1851  TIP3      H2             -0.8304386291       19.3354105524        6.8873251574  W2        1851            0.0000000000
      5554      1852  TIP3      OH2             0.5626213709       20.1376805524      -10.8397448426  W2        1852            0.0000000000
      5555      1852  TIP3      H1              0.8456613709       19.3432005524      -10.3870548426  W2        1852            0.0000000000
      5556      1852  TIP3      H2              1.3024113709       20.3707805524      -11.4006348426  W2        1852            0.0000000000
      5557      1853  TIP3      OH2           -12.8240186291       15.7036005524        6.8852851574  W2        1853            0.0000000000
      5558      1853  TIP3      H1            -12.6799686291       14.8016705524        6.5989551574  W2        1853            0.0000000000
      5559      1853  TIP3      H2            -13.5962786291       15.9898105524        6.3975151574  W2        1853            0.0000000000
      5560      1854  TIP3      OH2            -8.4826486291       16.0471705524      -10.9822548426  W2        1854            0.0000000000
      5561      1854  TIP3      H1             -8.4182386291       15.2531305524      -10.4516148426  W2        1854            0.0000000000
      5562      1854  TIP3      H2             -7.8297286291       15.9284505524      -11.6720548426  W2        1854            0.0000000000
      5563      1855  TIP3      OH2            -6.1684086291       15.6734105524        6.3179251574  W2        1855            0.0000000000
      5564      1855  TIP3      H1             -6.4970286291       15.9442205524        5.4606651574  W2        1855            0.0000000000
      5565      1855  TIP3      H2             -6.0165886291       14.7323905524        6.2304251574  W2        1855            0.0000000000
      5566      1856  TIP3      OH2            -3.1303086291       17.0943405524      -11.2464548426  W2        1856            0.0000000000
      5567      1856  TIP3      H1             -3.3988986291       17.2745505524      -10.3455648426  W2        1856            0.0000000000
      5568      1856  TIP3      H2             -3.3367486291       16.1689605524      -11.3778748426  W2        1856            0.0000000000
      5569      1857  TIP3      OH2            -0.4338886291       15.5891405524        3.7011551574  W2        1857            0.0000000000
      5570      1857  TIP3      H1              0.3115913709       16.1775105524        3.5815551574  W2        1857            0.0000000000
      5571      1857  TIP3      H2             -1.1912086291       16.1711105524        3.7644651574  W2        1857            0.0000000000
      5572      1858  TIP3      OH2           -11.9913686291       12.9039305524        6.3052151574  W2        1858            0.0000000000
      5573      1858  TIP3      H1            -11.5832486291       12.0465905524        6.1842751574  W2        1858            0.0000000000
      5574      1858  TIP3      H2            -12.2516086291       12.9180605524        7.2262451574  W2        1858            0.0000000000
      5575      1859  TIP3      OH2            -7.3332686291       14.0197905524       -8.6764548426  W2        1859            0.0000000000
      5576      1859  TIP3      H1             -7.7930686291       13.5356205524       -7.9906048426  W2        1859            0.0000000000
      5577      1859  TIP3      H2             -7.0783986291       13.3513305524       -9.3124048426  W2        1859            0.0000000000
      5578      1860  TIP3      OH2            -8.0443386291       11.9125005524        3.6795051574  W2        1860            0.0000000000
      5579      1860  TIP3      H1             -8.6627286291       12.5871605524        3.9599751574  W2        1860            0.0000000000
      5580      1860  TIP3      H2             -7.7002186291       12.2338905524        2.8461251574  W2        1860            0.0000000000
      5581      1861  TIP3      OH2            -6.2622286291       12.2629705524      -10.4141348426  W2        1861            0.0000000000
      5582      1861  TIP3      H1             -6.4427286291       12.1080905524      -11.3413048426  W2        1861            0.0000000000
      5583      1861  TIP3      H2             -5.3121786291       12.3708405524      -10.3693448426  W2        1861            0.0000000000
      5584      1862  TIP3      OH2            -3.0245186291       14.3840305524        6.9569851574  W2        1862            0.0000000000
      5585      1862  TIP3      H1             -2.0713986291       14.4679405524        6.9295851574  W2        1862            0.0000000000
      5586      1862  TIP3      H2             -3.1850586291       13.6722105524        7.5764751574  W2        1862            0.0000000000
      5587      1863  TIP3      OH2             3.1276013709       14.6173905524      -10.9683248426  W2        1863            0.0000000000
      5588      1863  TIP3      H1              2.8540813709       14.1929405524      -11.7814948426  W2        1863            0.0000000000
      5589      1863  TIP3      H2              3.1670113709       15.5488405524      -11.1852848426  W2        1863            0.0000000000
      5590      1864  TIP3      OH2            -7.7049686291        9.2675805524        4.7618151574  W2        1864            0.0000000000
      5591      1864  TIP3      H1             -7.5548786291        8.5387105524        4.1597851574  W2        1864            0.0000000000
      5592      1864  TIP3      H2             -7.7027286291       10.0447505524        4.2030351574  W2        1864            0.0000000000
      5593      1865  TIP3      OH2            -7.2923986291        7.6371605524        2.2545551574  W2        1865            0.0000000000
      5594      1865  TIP3      H1             -6.7566486291        8.0888305524        1.6024851574  W2        1865            0.0000000000
      5595      1865  TIP3      H2             -8.1444386291        7.5291405524        1.8319651574  W2        1865            0.0000000000
      5596      1866  TIP3      OH2            -5.7105586291       13.0767805524        2.4940751574  W2        1866            0.0000000000
      5597      1866  TIP3      H1             -4.9600786291       12.9205305524        1.9208551574  W2        1866            0.0000000000
      5598      1866  TIP3      H2             -6.0497286291       13.9284405524        2.2186251574  W2        1866            0.0000000000
      5599      1867  TIP3      OH2            -1.2949386291       10.8919605524        7.5226051574  W2        1867            0.0000000000
      5600      1867  TIP3      H1             -1.1028086291        9.9609005524        7.4110551574  W2        1867            0.0000000000
      5601      1867  TIP3      H2             -0.4373086291       11.3169105524        7.5121451574  W2        1867            0.0000000000
      5602      1868  TIP3      OH2             0.0217813709       13.6804805524        5.5998751574  W2        1868            0.0000000000
      5603      1868  TIP3      H1             -0.2597186291       14.3899405524        5.0222551574  W2        1868            0.0000000000
      5604      1868  TIP3      H2              0.9642113709       13.6077805524        5.4489951574  W2        1868            0.0000000000
      5605      1869  TIP3      OH2            -9.2263386291       10.4659305524        6.6733751574  W2        1869            0.0000000000
      5606      1869  TIP3      H1             -9.9934386291        9.9334105524        6.4631351574  W2        1869            0.0000000000
      5607      1869  TIP3      H2             -8.5474386291       10.1559705524        6.0740051574  W2        1869            0.0000000000
      5608      1870  TIP3      OH2            -6.4868486291        5.0937305524        2.6859151574  W2        1870            0.0000000000
      5609      1870  TIP3      H1             -6.5848886291        6.0400505524        2.5805351574  W2        1870            0.0000000000
      5610      1870  TIP3      H2             -7.2292286291        4.7211105524        2.2102651574  W2        1870            0.0000000000
      5611      1871  TIP3      OH2            -5.2227986291        9.4152705524        6.2497551574  W2        1871            0.0000000000
      5612      1871  TIP3      H1             -5.4582586291        9.1959405524        7.1512451574  W2        1871            0.0000000000
      5613      1871  TIP3      H2             -6.0061086291        9.2083905524        5.7400051574  W2        1871            0.0000000000
      5614      1872  TIP3      OH2            -2.5071386291        8.5426205524        5.3251051574  W2        1872            0.0000000000
      5615      1872  TIP3      H1             -3.4545986291        8.5745905524        5.4574351574  W2        1872            0.0000000000
      5616      1872  TIP3      H2             -2.1944686291        7.9173305524        5.9789251574  W2        1872            0.0000000000
      5617      1873  TIP3      OH2            -0.8729886291        7.1767305524        7.3302951574  W2        1873            0.0000000000
      5618      1873  TIP3      H1             -0.9698086291        6.2244605524        7.3244851574  W2        1873            0.0000000000
      5619      1873  TIP3      H2             -1.1946786291        7.4454105524        8.1908451574  W2        1873            0.0000000000
      5620      1874  TIP3      OH2           -11.0460586291        8.3863105524        6.3778451574  W2        1874            0.0000000000
      5621      1874  TIP3      H1            -10.8343186291        7.6799205524        5.7675951574  W2        1874            0.0000000000
      5622      1874  TIP3      H2            -11.1573086291        7.9489105524        7.2219651574  W2        1874            0.0000000000
      5623      1875  TIP3      OH2            -6.2650386291        4.3874705524        5.3571951574  W2        1875            0.0000000000
      5624      1875  TIP3      H1             -5.5531986291        3.7476905524        5.3431051574  W2        1875            0.0000000000
      5625      1875  TIP3      H2             -6.3659986291        4.6543005524        4.4435051574  W2        1875            0.0000000000
      5626      1876  TIP3      OH2            -5.9112886291        6.0703105524        7.4108251574  W2        1876            0.0000000000
      5627      1876  TIP3      H1             -6.0430686291        5.5946905524        6.5906751574  W2        1876            0.0000000000
      5628      1876  TIP3      H2             -6.5105486291        6.8146705524        7.3555351574  W2        1876            0.0000000000
      5629      1877  TIP3      OH2            -6.3650586291       22.9533405524       -9.4127748426  W2        1877            0.0000000000
      5630      1877  TIP3      H1             -5.4319886291       23.1112105524       -9.2689348426  W2        1877            0.0000000000
      5631      1877  TIP3      H2             -6.6291786291       23.6286405524      -10.0376248426  W2        1877            0.0000000000
      5632      1878  TIP3      OH2           -12.7965686291       17.5897205524       -9.9299648426  W2        1878            0.0000000000
      5633      1878  TIP3      H1            -11.8826486291       17.6686105524       -9.6565748426  W2        1878            0.0000000000
      5634      1878  TIP3      H2            -12.7892586291       16.9026805524      -10.5964048426  W2        1878            0.0000000000
      5635      1879  TIP3      OH2           -14.1475086291       22.9825705524       -4.8525748426  W2        1879            0.0000000000
      5636      1879  TIP3      H1            -14.7947986291       22.5207405524       -5.3854548426  W2        1879            0.0000000000
      5637      1879  TIP3      H2            -13.7930486291       22.3109005524       -4.2699548426  W2        1879            0.0000000000
      5638      1880  TIP3      OH2           -13.2775886291       21.0632705524       -3.0479548426  W2        1880            0.0000000000
      5639      1880  TIP3      H1            -13.6119086291       20.1830005524       -2.8759348426  W2        1880            0.0000000000
      5640      1880  TIP3      H2            -13.0553486291       21.4087705524       -2.1833948426  W2        1880            0.0000000000
      5641      1881  TIP3      OH2             4.2708913709       21.8729105524       -0.0674748426  W2        1881            0.0000000000
      5642      1881  TIP3      H1              4.2495613709       22.0577505524        0.8714651574  W2        1881            0.0000000000
      5643      1881  TIP3      H2              4.9615113709       22.4413105524       -0.4083348426  W2        1881            0.0000000000
      5644      1882  TIP3      OH2             3.8341813709       21.4400205524        2.8544351574  W2        1882            0.0000000000
      5645      1882  TIP3      H1              3.3470513709       20.7044305524        2.4831751574  W2        1882            0.0000000000
      5646      1882  TIP3      H2              4.3834513709       21.0464105524        3.5323751574  W2        1882            0.0000000000
      5647      1883  TIP3      OH2             2.2849113709       17.2298305524        7.4924651574  W2        1883            0.0000000000
      5648      1883  TIP3      H1              1.4190213709       17.1248005524        7.8866951574  W2        1883            0.0000000000
      5649      1883  TIP3      H2              2.6615013709       17.9881605524        7.9389351574  W2        1883            0.0000000000
      5650      1884  TIP3      OH2             3.5858813709       15.4862005524       -6.9932848426  W2        1884            0.0000000000
      5651      1884  TIP3      H1              4.4360213709       15.9072905524       -6.8661248426  W2        1884            0.0000000000
      5652      1884  TIP3      H2              3.5913913709       14.7462105524       -6.3861448426  W2        1884            0.0000000000
      5653      1885  TIP3      OH2             3.9804413709       13.5399405524       -5.1697148426  W2        1885            0.0000000000
      5654      1885  TIP3      H1              3.2539013709       13.0602005524       -4.7719548426  W2        1885            0.0000000000
      5655      1885  TIP3      H2              4.5617713709       13.7454105524       -4.4375548426  W2        1885            0.0000000000
      5656      1886  TIP3      OH2             3.7395613709       16.3246905524       -0.2219548426  W2        1886            0.0000000000
      5657      1886  TIP3      H1              4.5729813709       15.9466905524       -0.5025948426  W2        1886            0.0000000000
      5658      1886  TIP3      H2              3.8515913709       17.2678105524       -0.3410448426  W2        1886            0.0000000000
      5659      1887  TIP3      OH2             2.2257913709       19.2024405524        2.0848851574  W2        1887            0.0000000000
      5660      1887  TIP3      H1              1.5783213709       19.5275905524        2.7104051574  W2        1887            0.0000000000
      5661      1887  TIP3      H2              1.7081913709       18.7622105524        1.4107151574  W2        1887            0.0000000000
      5662      1888  TIP3      OH2             4.2487513709       13.4407905524       -8.7785848426  W2        1888            0.0000000000
      5663      1888  TIP3      H1              3.7268613709       13.7972005524       -9.4974948426  W2        1888            0.0000000000
      5664      1888  TIP3      H2              4.2156713709       14.1155705524       -8.1004948426  W2        1888            0.0000000000
      5665      1889  TIP3      OH2             2.5976513709       10.6803505524      -10.2278748426  W2        1889            0.0000000000
      5666      1889  TIP3      H1              2.6940913709       11.3470505524      -10.9079048426  W2        1889            0.0000000000
      5667      1889  TIP3      H2              2.4576113709        9.8649805524      -10.7093248426  W2        1889            0.0000000000
      5668      1890  TIP3      OH2             1.7671213709       12.0605905524       -4.6068448426  W2        1890            0.0000000000
      5669      1890  TIP3      H1              1.6170013709       11.1154505524       -4.6270648426  W2        1890            0.0000000000
      5670      1890  TIP3      H2              1.4135713709       12.3417305524       -3.7629348426  W2        1890            0.0000000000
      5671      1891  TIP3      OH2           -13.1976386291       14.1388105524       -0.5964648426  W2        1891            0.0000000000
      5672      1891  TIP3      H1            -13.0133486291       14.0569805524       -1.5321748426  W2        1891            0.0000000000
      5673      1891  TIP3      H2            -12.3483486291       14.0145105524       -0.1728248426  W2        1891            0.0000000000
      5674      1892  TIP3      OH2             2.6234113709       14.0309205524        5.0319851574  W2        1892            0.0000000000
      5675      1892  TIP3      H1              3.2061413709       13.2961505524        5.2237051574  W2        1892            0.0000000000
      5676      1892  TIP3      H2              3.1873413709       14.8029505524        5.0785651574  W2        1892            0.0000000000
      5677      1893  TIP3      OH2             4.1201213709       11.9335005524        5.7165251574  W2        1893            0.0000000000
      5678      1893  TIP3      H1              3.2567913709       11.5547105524        5.5509951574  W2        1893            0.0000000000
      5679      1893  TIP3      H2              4.7244913709       11.1949805524        5.6421051574  W2        1893            0.0000000000
      5680      1894  TIP3      OH2             1.8450313709        8.0883305524      -11.1103248426  W2        1894            0.0000000000
      5681      1894  TIP3      H1              2.4556113709        7.7170105524      -10.4735048426  W2        1894            0.0000000000
      5682      1894  TIP3      H2              1.0081813709        7.6670205524      -10.9143248426  W2        1894            0.0000000000
      5683      1895  TIP3      OH2             1.4776013709        9.6431705524       -6.1443348426  W2        1895            0.0000000000
      5684      1895  TIP3      H1              1.7573113709        8.7362105524       -6.0201648426  W2        1895            0.0000000000
      5685      1895  TIP3      H2              2.2367713709       10.0773205524       -6.5334148426  W2        1895            0.0000000000
      5686      1896  TIP3      OH2             2.0894313709       10.2249105524       -0.7084448426  W2        1896            0.0000000000
      5687      1896  TIP3      H1              3.0222313709       10.4369005524       -0.7428448426  W2        1896            0.0000000000
      5688      1896  TIP3      H2              1.8541813709       10.3261205524        0.2138551574  W2        1896            0.0000000000
      5689      1897  TIP3      OH2             2.1186213709       10.9614405524        2.0674951574  W2        1897            0.0000000000
      5690      1897  TIP3      H1              1.2757513709       11.2294805524        2.4334751574  W2        1897            0.0000000000
      5691      1897  TIP3      H2              2.5610513709       11.7836305524        1.8566051574  W2        1897            0.0000000000
      5692      1898  TIP3      OH2           -13.6001586291        9.4093105524        5.5444151574  W2        1898            0.0000000000
      5693      1898  TIP3      H1            -12.6806686291        9.2871405524        5.7807251574  W2        1898            0.0000000000
      5694      1898  TIP3      H2            -14.0497086291        8.6592805524        5.9337651574  W2        1898            0.0000000000
      5695      1899  TIP3      OH2             4.4017813709        4.9414605524        7.4209951574  W2        1899            0.0000000000
      5696      1899  TIP3      H1              4.7514813709        4.2878105524        6.8154651574  W2        1899            0.0000000000
      5697      1899  TIP3      H2              4.5487313709        5.7788705524        6.9812551574  W2        1899            0.0000000000
      5698      1900  TIP3      OH2             2.0910813709        6.9061005524       -6.0961348426  W2        1900            0.0000000000
      5699      1900  TIP3      H1              2.2735813709        6.4572505524       -5.2706348426  W2        1900            0.0000000000
      5700      1900  TIP3      H2              1.4913713709        6.3215405524       -6.5596748426  W2        1900            0.0000000000
      5701      1901  TIP3      OH2           -12.3789086291        7.7214705524       -1.5642948426  W2        1901            0.0000000000
      5702      1901  TIP3      H1            -11.9337486291        6.9297205524       -1.2623248426  W2        1901            0.0000000000
      5703      1901  TIP3      H2            -11.9126086291        8.4379905524       -1.1337348426  W2        1901            0.0000000000
      5704      1902  TIP3      OH2           -14.0748786291       10.7207705524       -0.4952748426  W2        1902            0.0000000000
      5705      1902  TIP3      H1            -13.5828986291       10.4998205524       -1.2860748426  W2        1902            0.0000000000
      5706      1902  TIP3      H2            -13.7127886291       11.5611105524       -0.2143248426  W2        1902            0.0000000000
      5707      1903  TIP3      OH2             3.9215013709        7.0509205524        5.7701251574  W2        1903            0.0000000000
      5708      1903  TIP3      H1              3.0040713709        7.3216305524        5.7344751574  W2        1903            0.0000000000
      5709      1903  TIP3      H2              4.0444413709        6.5157605524        4.9860951574  W2        1903            0.0000000000
      5710      1904  TIP3      OH2             3.9577013709        6.9739105524       -9.5681048426  W2        1904            0.0000000000
      5711      1904  TIP3      H1              4.3699613709        6.2524805524      -10.0433048426  W2        1904            0.0000000000
      5712      1904  TIP3      H2              4.6393513709        7.6433705524       -9.5096748426  W2        1904            0.0000000000
      5713      1905  TIP3      OH2           -13.7612286291        6.9786805524       -6.4410348426  W2        1905            0.0000000000
      5714      1905  TIP3      H1            -14.6863886291        7.1873405524       -6.5704848426  W2        1905            0.0000000000
      5715      1905  TIP3      H2            -13.3072386291        7.4627605524       -7.1308048426  W2        1905            0.0000000000
      5716      1906  TIP3      OH2             1.0094913709       21.9628505524       -4.4952948426  W2        1906            0.0000000000
      5717      1906  TIP3      H1              1.6617813709       21.6150605524       -5.1033848426  W2        1906            0.0000000000
      5718      1906  TIP3      H2              1.5198713709       22.4511705524       -3.8493248426  W2        1906            0.0000000000
      5719      1907  TIP3      OH2           -13.7976886291        5.7165805524        1.9032151574  W2        1907            0.0000000000
      5720      1907  TIP3      H1            -14.4626386291        5.4706105524        2.5463051574  W2        1907            0.0000000000
      5721      1907  TIP3      H2            -14.2405586291        6.3386205524        1.3260151574  W2        1907            0.0000000000
      5722      1908  TIP3      OH2           -11.6057586291       18.8919905524        6.0477951574  W2        1908            0.0000000000
      5723      1908  TIP3      H1            -12.4265086291       19.0666405524        5.5872651574  W2        1908            0.0000000000
      5724      1908  TIP3      H2            -11.8579786291       18.8184605524        6.9682351574  W2        1908            0.0000000000
      5725      1909  TIP3      OH2            -8.6514686291       19.8661105524        2.3061951574  W2        1909            0.0000000000
      5726      1909  TIP3      H1             -9.0763586291       20.6759605524        2.0236551574  W2        1909            0.0000000000
      5727      1909  TIP3      H2             -7.7471886291       19.9515205524        2.0041751574  W2        1909            0.0000000000
      5728      1910  TIP3      OH2            -4.3403286291       21.2651105524        5.2655651574  W2        1910            0.0000000000
      5729      1910  TIP3      H1             -4.1555786291       20.9317205524        6.1435951574  W2        1910            0.0000000000
      5730      1910  TIP3      H2             -3.4938786291       21.5749705524        4.9434851574  W2        1910            0.0000000000
      5731      1911  TIP3      OH2            -1.9952886291       22.5510005524        4.5097051574  W2        1911            0.0000000000
      5732      1911  TIP3      H1             -1.3183986291       21.9182305524        4.2696251574  W2        1911            0.0000000000
      5733      1911  TIP3      H2             -1.6734086291       22.9520505524        5.3170351574  W2        1911            0.0000000000
      5734      1912  TIP3      OH2             2.9220913709        5.1405505524        3.5892051574  W2        1912            0.0000000000
      5735      1912  TIP3      H1              2.1094413709        5.4655805524        3.2016751574  W2        1912            0.0000000000
      5736      1912  TIP3      H2              3.1549413709        4.3804005524        3.0561151574  W2        1912            0.0000000000
      5737      1913  TIP3      OH2           -11.2497986291       23.1225005524        2.3537251574  W2        1913            0.0000000000
      5738      1913  TIP3      H1            -11.9701586291       23.5626005524        1.9024951574  W2        1913            0.0000000000
      5739      1913  TIP3      H2            -11.6153986291       22.8719705524        3.2021251574  W2        1913            0.0000000000
      5740      1914  TIP3      OH2            -8.7825386291       22.7228905524        1.3834451574  W2        1914            0.0000000000
      5741      1914  TIP3      H1             -9.6473186291       22.7947405524        1.7874551574  W2        1914            0.0000000000
      5742      1914  TIP3      H2             -8.8376386291       23.2696205524        0.5996951574  W2        1914            0.0000000000
      5743      1915  TIP3      OH2            -4.0719786291       22.6107805524        0.5590451574  W2        1915            0.0000000000
      5744      1915  TIP3      H1             -4.5285786291       23.1397505524       -0.0951148426  W2        1915            0.0000000000
      5745      1915  TIP3      H2             -3.9091786291       23.2139205524        1.2842751574  W2        1915            0.0000000000
      5746      1916  TIP3      OH2            -1.7443486291       21.4887405524        1.5040751574  W2        1916            0.0000000000
      5747      1916  TIP3      H1             -2.6489786291       21.6537605524        1.2382851574  W2        1916            0.0000000000
      5748      1916  TIP3      H2             -1.3154886291       22.3419605524        1.4384151574  W2        1916            0.0000000000
      5749      1917  TIP3      OH2             0.8598413709       23.0586505524        1.7988551574  W2        1917            0.0000000000
      5750      1917  TIP3      H1              0.6780413709       23.9745405524        1.5883451574  W2        1917            0.0000000000
      5751      1917  TIP3      H2              1.0366213709       22.6483605524        0.9523151574  W2        1917            0.0000000000
      5752      1918  TIP3      OH2           -11.8349886291       21.7457505524       -0.7360948426  W2        1918            0.0000000000
      5753      1918  TIP3      H1            -11.8533886291       21.3202605524        0.1211351574  W2        1918            0.0000000000
      5754      1918  TIP3      H2            -11.0301986291       21.4272505524       -1.1448748426  W2        1918            0.0000000000
      5755      1919  TIP3      OH2            -9.6936786291       20.4556205524       -2.0811048426  W2        1919            0.0000000000
      5756      1919  TIP3      H1             -9.9126086291       19.5393605524       -1.9115048426  W2        1919            0.0000000000
      5757      1919  TIP3      H2             -8.8694586291       20.5956605524       -1.6149648426  W2        1919            0.0000000000
      5758      1920  TIP3      OH2            -7.1564286291       20.9255505524       -1.2323048426  W2        1920            0.0000000000
      5759      1920  TIP3      H1             -6.9438586291       20.0374505524       -1.5192148426  W2        1920            0.0000000000
      5760      1920  TIP3      H2             -7.0919186291       20.8913205524       -0.2779048426  W2        1920            0.0000000000
      5761      1921  TIP3      OH2            -3.6480586291        6.5896105524       -2.0879748426  W2        1921            0.0000000000
      5762      1921  TIP3      H1             -4.3223786291        5.9601705524       -1.8323948426  W2        1921            0.0000000000
      5763      1921  TIP3      H2             -3.0841386291        6.1055005524       -2.6911848426  W2        1921            0.0000000000
      5764      1922  TIP3      OH2             1.4946613709        4.6970105524       -1.9752648426  W2        1922            0.0000000000
      5765      1922  TIP3      H1              2.0984213709        5.2445505524       -2.4771648426  W2        1922            0.0000000000
      5766      1922  TIP3      H2              0.6248613709        5.0160505524       -2.2158548426  W2        1922            0.0000000000
      5767      1923  TIP3      OH2             3.2217013709        5.8358805524       -3.6421748426  W2        1923            0.0000000000
      5768      1923  TIP3      H1              3.8334513709        5.3214505524       -4.1688148426  W2        1923            0.0000000000
      5769      1923  TIP3      H2              3.6040413709        6.7130905524       -3.6187348426  W2        1923            0.0000000000
      5770      1924  TIP3      OH2           -11.3213086291        5.2236405524       -4.2659848426  W2        1924            0.0000000000
      5771      1924  TIP3      H1            -12.0983286291        4.9891305524       -4.7733948426  W2        1924            0.0000000000
      5772      1924  TIP3      H2            -10.7909486291        4.4268505524       -4.2571848426  W2        1924            0.0000000000
      5773      1925  TIP3      OH2           -12.4849686291        5.0214505524       -8.4623748426  W2        1925            0.0000000000
      5774      1925  TIP3      H1            -12.0458986291        5.6325005524       -9.0540248426  W2        1925            0.0000000000
      5775      1925  TIP3      H2            -13.1187286291        5.5598605524       -7.9883748426  W2        1925            0.0000000000
      5776      1926  TIP3      OH2            -6.7420486291        5.1503505524       -4.4526748426  W2        1926            0.0000000000
      5777      1926  TIP3      H1             -5.8677086291        5.5387805524       -4.4822448426  W2        1926            0.0000000000
      5778      1926  TIP3      H2             -6.8779686291        4.9351305524       -3.5299548426  W2        1926            0.0000000000
      5779      1927  TIP3      OH2            -1.1852086291        5.1803305524       -2.8035048426  W2        1927            0.0000000000
      5780      1927  TIP3      H1             -1.1090486291        5.2754905524       -3.7529048426  W2        1927            0.0000000000
      5781      1927  TIP3      H2             -1.4602886291        4.2726205524       -2.6745948426  W2        1927            0.0000000000
      5782      1928  TIP3      OH2             0.1680513709        5.2061105524       -7.1110048426  W2        1928            0.0000000000
      5783      1928  TIP3      H1             -0.5348386291        5.8210305524       -7.3208648426  W2        1928            0.0000000000
      5784      1928  TIP3      H2             -0.2768086291        4.3687805524       -6.9799148426  W2        1928            0.0000000000
      5785      1929  TIP3      OH2           -12.5840186291       20.9696705524       -7.5648648426  W2        1929            0.0000000000
      5786      1929  TIP3      H1            -13.2690286291       20.9315605524       -8.2323548426  W2        1929            0.0000000000
      5787      1929  TIP3      H2            -12.5802986291       21.8824305524       -7.2766548426  W2        1929            0.0000000000
      5788      1930  TIP3      OH2           -10.6240586291        6.9376005524      -10.0199648426  W2        1930            0.0000000000
      5789      1930  TIP3      H1            -10.1327186291        6.3078405524      -10.5474148426  W2        1930            0.0000000000
      5790      1930  TIP3      H2            -10.0004286291        7.2335405524       -9.3568448426  W2        1930            0.0000000000
      5791      1931  TIP3      OH2            -5.5980486291        7.2307505524       -7.5629148426  W2        1931            0.0000000000
      5792      1931  TIP3      H1             -5.4199186291        6.5840705524       -6.8800548426  W2        1931            0.0000000000
      5793      1931  TIP3      H2             -5.6514286291        8.0645205524       -7.0958048426  W2        1931            0.0000000000
      5794      1932  TIP3      OH2            -3.7196686291       22.1791605524       -9.1672448426  W2        1932            0.0000000000
      5795      1932  TIP3      H1             -2.8536486291       22.5459005524       -9.3454248426  W2        1932            0.0000000000
      5796      1932  TIP3      H2             -3.9663886291       21.7399605524       -9.9811648426  W2        1932            0.0000000000
      5797      1933  TIP3      OH2             2.9892913709       21.7421905524       -6.4881348426  W2        1933            0.0000000000
      5798      1933  TIP3      H1              2.7950013709       20.9944005524       -7.0531748426  W2        1933            0.0000000000
      5799      1933  TIP3      H2              2.9503013709       22.5002005524       -7.0713448426  W2        1933            0.0000000000
      5800      1934  TIP3      OH2           -11.3635086291        5.7378305524        5.2516351574  W2        1934            0.0000000000
      5801      1934  TIP3      H1            -11.7296886291        4.9720905524        5.6941051574  W2        1934            0.0000000000
      5802      1934  TIP3      H2            -10.4506586291        5.7668505524        5.5381451574  W2        1934            0.0000000000
      5803      1935  TIP3      OH2            -9.3904286291        5.0882705524        6.7873451574  W2        1935            0.0000000000
      5804      1935  TIP3      H1             -8.4920686291        4.8142905524        6.6026851574  W2        1935            0.0000000000
      5805      1935  TIP3      H2             -9.7771186291        4.3458705524        7.2516051574  W2        1935            0.0000000000
      5806      1936  TIP3      OH2           -10.7658986291       21.8897505524      -10.5396548426  W2        1936            0.0000000000
      5807      1936  TIP3      H1            -11.0334386291       22.1760405524       -9.6663448426  W2        1936            0.0000000000
      5808      1936  TIP3      H2             -9.9946386291       21.3436705524      -10.3874048426  W2        1936            0.0000000000
      5809      1937  TIP3      OH2            -0.9691986291        4.4208005524        6.9696251574  W2        1937            0.0000000000
      5810      1937  TIP3      H1             -0.8924786291        3.9948705524        7.8233951574  W2        1937            0.0000000000
      5811      1937  TIP3      H2             -0.0755386291        4.4342705524        6.6269751574  W2        1937            0.0000000000
      5812      1938  TIP3      OH2             2.2069113709       20.4934305524        5.6620451574  W2        1938            0.0000000000
      5813      1938  TIP3      H1              1.4251013709       20.3072305524        5.1421051574  W2        1938            0.0000000000
      5814      1938  TIP3      H2              2.1349013709       21.4228605524        5.8792951574  W2        1938            0.0000000000
      5815      1939  TIP3      OH2            16.6129513709       14.3798705524       -4.3072348426  W2        1939            0.0000000000
      5816      1939  TIP3      H1             16.7020613709       15.3236905524       -4.4395248426  W2        1939            0.0000000000
      5817      1939  TIP3      H2             15.9747113709       14.1045105524       -4.9652948426  W2        1939            0.0000000000
      5818      1940  TIP3      OH2            15.5460813709       13.6349405524       -0.8884148426  W2        1940            0.0000000000
      5819      1940  TIP3      H1             15.5078313709       12.9885705524       -0.1834548426  W2        1940            0.0000000000
      5820      1940  TIP3      H2             15.2237313709       13.1683805524       -1.6595448426  W2        1940            0.0000000000
      5821      1941  TIP3      OH2             7.9145813709       13.2491505524        0.7045751574  W2        1941            0.0000000000
      5822      1941  TIP3      H1              7.9557913709       12.6234805524        1.4278151574  W2        1941            0.0000000000
      5823      1941  TIP3      H2              8.6173513709       13.8730105524        0.8866151574  W2        1941            0.0000000000
      5824      1942  TIP3      OH2            19.2521013709       16.5739805524       -2.5869048426  W2        1942            0.0000000000
      5825      1942  TIP3      H1             18.8113713709       15.8535805524       -2.1363448426  W2        1942            0.0000000000
      5826      1942  TIP3      H2             19.2390713709       17.2947005524       -1.9571348426  W2        1942            0.0000000000
      5827      1943  TIP3      OH2             8.8378913709       17.6990405524       -0.7605148426  W2        1943            0.0000000000
      5828      1943  TIP3      H1              8.4684113709       16.8970905524       -1.1300848426  W2        1943            0.0000000000
      5829      1943  TIP3      H2              9.7790013709       17.5305305524       -0.7141748426  W2        1943            0.0000000000
      5830      1944  TIP3      OH2             5.4479413709       11.3593005524       -5.3676348426  W2        1944            0.0000000000
      5831      1944  TIP3      H1              5.0002813709       12.2051705524       -5.3859848426  W2        1944            0.0000000000
      5832      1944  TIP3      H2              4.8870613709       10.7797205524       -5.8831248426  W2        1944            0.0000000000
      5833      1945  TIP3      OH2             6.1585513709       13.5212605524       -3.2418348426  W2        1945            0.0000000000
      5834      1945  TIP3      H1              6.3719013709       12.7514205524       -2.7145348426  W2        1945            0.0000000000
      5835      1945  TIP3      H2              6.8963113709       13.6109305524       -3.8450748426  W2        1945            0.0000000000
      5836      1946  TIP3      OH2            16.3636513709       21.6781505524       -2.3748648426  W2        1946            0.0000000000
      5837      1946  TIP3      H1             16.9832913709       21.0016205524       -2.6479448426  W2        1946            0.0000000000
      5838      1946  TIP3      H2             16.1553913709       21.4602305524       -1.4663748426  W2        1946            0.0000000000
      5839      1947  TIP3      OH2            13.9355213709       16.0670805524       -0.4823148426  W2        1947            0.0000000000
      5840      1947  TIP3      H1             14.2393113709       15.3812205524       -1.0769048426  W2        1947            0.0000000000
      5841      1947  TIP3      H2             14.6569213709       16.1859505524        0.1354851574  W2        1947            0.0000000000
      5842      1948  TIP3      OH2            22.5985013709        7.6686105524        0.3783051574  W2        1948            0.0000000000
      5843      1948  TIP3      H1             22.6477213709        8.2787305524        1.1142151574  W2        1948            0.0000000000
      5844      1948  TIP3      H2             23.0240113709        8.1297005524       -0.3445848426  W2        1948            0.0000000000
      5845      1949  TIP3      OH2            17.0762213709       10.4613205524       -0.1548348426  W2        1949            0.0000000000
      5846      1949  TIP3      H1             17.2188113709        9.5150205524       -0.1346748426  W2        1949            0.0000000000
      5847      1949  TIP3      H2             16.9701213709       10.6683005524       -1.0833448426  W2        1949            0.0000000000
      5848      1950  TIP3      OH2            10.2310513709        8.5629605524       -2.8823548426  W2        1950            0.0000000000
      5849      1950  TIP3      H1             10.2741613709        9.4228105524       -3.3007248426  W2        1950            0.0000000000
      5850      1950  TIP3      H2              9.7734613709        8.0104305524       -3.5160348426  W2        1950            0.0000000000
      5851      1951  TIP3      OH2            17.9533213709        8.6935205524       -4.4815248426  W2        1951            0.0000000000
      5852      1951  TIP3      H1             18.5997513709        8.3648405524       -3.8567648426  W2        1951            0.0000000000
      5853      1951  TIP3      H2             18.4632613709        9.2114205524       -5.1043848426  W2        1951            0.0000000000
      5854      1952  TIP3      OH2             6.8512013709       10.9595405524       -2.1202148426  W2        1952            0.0000000000
      5855      1952  TIP3      H1              7.5048613709       10.4097105524       -1.6882048426  W2        1952            0.0000000000
      5856      1952  TIP3      H2              6.8751313709       10.6854405524       -3.0370148426  W2        1952            0.0000000000
      5857      1953  TIP3      OH2            12.0076513709       12.5096705524       -2.9050648426  W2        1953            0.0000000000
      5858      1953  TIP3      H1             12.6237513709       11.9832105524       -2.3956648426  W2        1953            0.0000000000
      5859      1953  TIP3      H2             11.4215313709       11.8695405524       -3.3087048426  W2        1953            0.0000000000
      5860      1954  TIP3      OH2            22.9899613709        9.1465305524        2.6142851574  W2        1954            0.0000000000
      5861      1954  TIP3      H1             22.3014213709        9.8046005524        2.5189451574  W2        1954            0.0000000000
      5862      1954  TIP3      H2             23.0054213709        8.9493205524        3.5508251574  W2        1954            0.0000000000
      5863      1955  TIP3      OH2             9.0412413709        7.4808005524        1.1917251574  W2        1955            0.0000000000
      5864      1955  TIP3      H1              8.8224113709        8.0108605524        0.4253251574  W2        1955            0.0000000000
      5865      1955  TIP3      H2              8.3733313709        7.7073505524        1.8388651574  W2        1955            0.0000000000
      5866      1956  TIP3      OH2            16.4102213709       16.9809105524       -5.2643648426  W2        1956            0.0000000000
      5867      1956  TIP3      H1             16.1147313709       16.6581405524       -6.1156748426  W2        1956            0.0000000000
      5868      1956  TIP3      H2             16.0860013709       17.8805805524       -5.2231048426  W2        1956            0.0000000000
      5869      1957  TIP3      OH2            11.6103813709       15.1563705524        1.4790951574  W2        1957            0.0000000000
      5870      1957  TIP3      H1             10.8702913709       15.7545205524        1.5826151574  W2        1957            0.0000000000
      5871      1957  TIP3      H2             12.3243313709       15.7103305524        1.1634551574  W2        1957            0.0000000000
      5872      1958  TIP3      OH2            19.7171613709        7.9844505524       -2.5009348426  W2        1958            0.0000000000
      5873      1958  TIP3      H1             19.5019613709        7.2187905524       -1.9683348426  W2        1958            0.0000000000
      5874      1958  TIP3      H2             20.3729013709        8.4569105524       -1.9880848426  W2        1958            0.0000000000
      5875      1959  TIP3      OH2             8.6349713709        9.3729805524       -0.8560548426  W2        1959            0.0000000000
      5876      1959  TIP3      H1              9.2486013709       10.0057405524       -0.4828148426  W2        1959            0.0000000000
      5877      1959  TIP3      H2              9.1470413709        8.9004805524       -1.5123648426  W2        1959            0.0000000000
      5878      1960  TIP3      OH2            10.0178113709       17.1206705524        2.2662451574  W2        1960            0.0000000000
      5879      1960  TIP3      H1             10.0125713709       18.0000205524        1.8881751574  W2        1960            0.0000000000
      5880      1960  TIP3      H2              9.1642213709       17.0370805524        2.6912351574  W2        1960            0.0000000000
      5881      1961  TIP3      OH2             6.1389013709       16.7914605524       -6.9518248426  W2        1961            0.0000000000
      5882      1961  TIP3      H1              5.8669913709       17.0205605524       -7.8405348426  W2        1961            0.0000000000
      5883      1961  TIP3      H2              6.1844713709       17.6293405524       -6.4912948426  W2        1961            0.0000000000
      5884      1962  TIP3      OH2            19.7638713709       18.4130505524       -0.2389748426  W2        1962            0.0000000000
      5885      1962  TIP3      H1             18.8222413709       18.4714405524       -0.0772848426  W2        1962            0.0000000000
      5886      1962  TIP3      H2             20.0404813709       19.3191005524       -0.3760048426  W2        1962            0.0000000000
      5887      1963  TIP3      OH2            20.0645713709        6.6995805524        1.1784151574  W2        1963            0.0000000000
      5888      1963  TIP3      H1             19.3284913709        7.3102905524        1.1405451574  W2        1963            0.0000000000
      5889      1963  TIP3      H2             20.7479713709        7.1144805524        0.6520551574  W2        1963            0.0000000000
      5890      1964  TIP3      OH2            13.0677113709        4.7863105524       -1.3557848426  W2        1964            0.0000000000
      5891      1964  TIP3      H1             12.9501313709        3.8379105524       -1.4099548426  W2        1964            0.0000000000
      5892      1964  TIP3      H2             12.2127213709        5.1189205524       -1.0826748426  W2        1964            0.0000000000
      5893      1965  TIP3      OH2            18.0159913709       20.1944005524       -3.6138148426  W2        1965            0.0000000000
      5894      1965  TIP3      H1             18.4412213709       19.4871905524       -4.0988548426  W2        1965            0.0000000000
      5895      1965  TIP3      H2             18.3329913709       20.9956705524       -4.0305948426  W2        1965            0.0000000000
      5896      1966  TIP3      OH2            19.1756413709       18.0952505524       -5.1051548426  W2        1966            0.0000000000
      5897      1966  TIP3      H1             18.9181213709       17.4052605524       -5.7165648426  W2        1966            0.0000000000
      5898      1966  TIP3      H2             19.2467213709       17.6523705524       -4.2595648426  W2        1966            0.0000000000
      5899      1967  TIP3      OH2            20.8616613709       16.6619205524        3.3721951574  W2        1967            0.0000000000
      5900      1967  TIP3      H1             21.0012913709       16.0701705524        2.6328951574  W2        1967            0.0000000000
      5901      1967  TIP3      H2             21.0289413709       17.5345105524        3.0160751574  W2        1967            0.0000000000
      5902      1968  TIP3      OH2            15.3342013709       13.6238705524       -6.8552048426  W2        1968            0.0000000000
      5903      1968  TIP3      H1             14.6227513709       14.1588405524       -7.2071548426  W2        1968            0.0000000000
      5904      1968  TIP3      H2             16.0251613709       13.6790805524       -7.5153148426  W2        1968            0.0000000000
      5905      1969  TIP3      OH2            15.3881213709       12.0813005524       -9.8167048426  W2        1969            0.0000000000
      5906      1969  TIP3      H1             16.0891113709       12.1039905524       -9.1653048426  W2        1969            0.0000000000
      5907      1969  TIP3      H2             15.6904113709       11.4532705524      -10.4727748426  W2        1969            0.0000000000
      5908      1970  TIP3      OH2            22.7035913709       13.0017205524        1.4382351574  W2        1970            0.0000000000
      5909      1970  TIP3      H1             22.0510013709       13.6962805524        1.5273251574  W2        1970            0.0000000000
      5910      1970  TIP3      H2             23.1686213709       13.2118105524        0.6283951574  W2        1970            0.0000000000
      5911      1971  TIP3      OH2            18.7399713709       13.8332005524       -5.9036148426  W2        1971            0.0000000000
      5912      1971  TIP3      H1             18.0080713709       14.0615705524       -5.3305548426  W2        1971            0.0000000000
      5913      1971  TIP3      H2             19.1871913709       13.1194705524       -5.4488648426  W2        1971            0.0000000000
      5914      1972  TIP3      OH2            18.6373213709       12.0074605524        3.1640851574  W2        1972            0.0000000000
      5915      1972  TIP3      H1             18.7172313709       12.7709005524        3.7359351574  W2        1972            0.0000000000
      5916      1972  TIP3      H2             18.0360913709       12.2867005524        2.4735951574  W2        1972            0.0000000000
      5917      1973  TIP3      OH2            10.3853413709       14.4638205524       -4.0211148426  W2        1973            0.0000000000
      5918      1973  TIP3      H1             10.0548613709       14.0931605524       -4.8394148426  W2        1973            0.0000000000
      5919      1973  TIP3      H2             10.9737513709       13.7932205524       -3.6742848426  W2        1973            0.0000000000
      5920      1974  TIP3      OH2            11.7520913709       17.8918805524       -1.3398948426  W2        1974            0.0000000000
      5921      1974  TIP3      H1             11.6572213709       17.3131905524       -2.0964348426  W2        1974            0.0000000000
      5922      1974  TIP3      H2             12.4814513709       17.5204505524       -0.8436148426  W2        1974            0.0000000000
      5923      1975  TIP3      OH2            10.7518913709       13.2323805524       -0.3876148426  W2        1975            0.0000000000
      5924      1975  TIP3      H1             11.3171413709       13.3538005524       -1.1504948426  W2        1975            0.0000000000
      5925      1975  TIP3      H2             11.0707813709       13.8698805524        0.2512351574  W2        1975            0.0000000000
      5926      1976  TIP3      OH2            17.0611113709       18.7355705524        0.3464351574  W2        1976            0.0000000000
      5927      1976  TIP3      H1             16.8207713709       19.3978805524        0.9943551574  W2        1976            0.0000000000
      5928      1976  TIP3      H2             16.8629313709       17.9010905524        0.7713951574  W2        1976            0.0000000000
      5929      1977  TIP3      OH2            11.6319613709       17.6316505524        4.3295751574  W2        1977            0.0000000000
      5930      1977  TIP3      H1             11.3207113709       18.4139705524        4.7848951574  W2        1977            0.0000000000
      5931      1977  TIP3      H2             10.9819813709       17.4785605524        3.6437751574  W2        1977            0.0000000000
      5932      1978  TIP3      OH2            17.6109213709       12.9954905524       -8.2184948426  W2        1978            0.0000000000
      5933      1978  TIP3      H1             18.1904713709       13.1455205524       -7.4716048426  W2        1978            0.0000000000
      5934      1978  TIP3      H2             18.0249213709       13.4662305524       -8.9418548426  W2        1978            0.0000000000
      5935      1979  TIP3      OH2             8.5519513709       13.8297605524        3.5581451574  W2        1979            0.0000000000
      5936      1979  TIP3      H1              8.6222713709       14.4804405524        4.2566451574  W2        1979            0.0000000000
      5937      1979  TIP3      H2              7.6611713709       13.9325105524        3.2232351574  W2        1979            0.0000000000
      5938      1980  TIP3      OH2            15.3374113709       19.7323405524       -4.7831848426  W2        1980            0.0000000000
      5939      1980  TIP3      H1             15.8111713709       20.0279705524       -4.0057648426  W2        1980            0.0000000000
      5940      1980  TIP3      H2             14.7743413709       20.4705005524       -5.0162248426  W2        1980            0.0000000000
      5941      1981  TIP3      OH2             9.8715513709       19.7031505524        5.0929551574  W2        1981            0.0000000000
      5942      1981  TIP3      H1              9.8790813709       19.5671205524        4.1455051574  W2        1981            0.0000000000
      5943      1981  TIP3      H2              8.9555913709       19.5859605524        5.3449551574  W2        1981            0.0000000000
      5944      1982  TIP3      OH2            21.3097613709        4.7455305524       -8.4055248426  W2        1982            0.0000000000
      5945      1982  TIP3      H1             20.4098313709        4.8844305524       -8.1104648426  W2        1982            0.0000000000
      5946      1982  TIP3      H2             21.5616013709        5.5769905524       -8.8073548426  W2        1982            0.0000000000
      5947      1983  TIP3      OH2             9.3756113709       13.5332505524       -6.4318348426  W2        1983            0.0000000000
      5948      1983  TIP3      H1              9.0837413709       14.3014205524       -6.9227048426  W2        1983            0.0000000000
      5949      1983  TIP3      H2              8.7011313709       12.8738705524       -6.5946948426  W2        1983            0.0000000000
      5950      1984  TIP3      OH2            22.4989013709       19.1117705524      -10.0291348426  W2        1984            0.0000000000
      5951      1984  TIP3      H1             22.5722513709       20.0507905524       -9.8586048426  W2        1984            0.0000000000
      5952      1984  TIP3      H2             23.4044113709       18.8066305524      -10.0854048426  W2        1984            0.0000000000
      5953      1985  TIP3      OH2             5.4686213709       15.8961705524        2.3831451574  W2        1985            0.0000000000
      5954      1985  TIP3      H1              4.9674613709       15.8681105524        1.5681151574  W2        1985            0.0000000000
      5955      1985  TIP3      H2              5.4739913709       14.9904905524        2.6928751574  W2        1985            0.0000000000
      5956      1986  TIP3      OH2             5.2188913709       18.6765505524       -0.7328348426  W2        1986            0.0000000000
      5957      1986  TIP3      H1              6.1649513709       18.5322505524       -0.7518848426  W2        1986            0.0000000000
      5958      1986  TIP3      H2              5.1065213709       19.4608305524       -0.1957148426  W2        1986            0.0000000000
      5959      1987  TIP3      OH2            23.4167413709       19.3425205524        4.9495351574  W2        1987            0.0000000000
      5960      1987  TIP3      H1             23.3674213709       18.3873305524        4.9122951574  W2        1987            0.0000000000
      5961      1987  TIP3      H2             22.5899713709       19.6100505524        5.3509151574  W2        1987            0.0000000000
      5962      1988  TIP3      OH2            14.3951413709       18.9164405524        3.8256751574  W2        1988            0.0000000000
      5963      1988  TIP3      H1             14.4826013709       19.7429005524        4.3005851574  W2        1988            0.0000000000
      5964      1988  TIP3      H2             13.5316513709       18.5868205524        4.0746051574  W2        1988            0.0000000000
      5965      1989  TIP3      OH2            14.8097213709       22.6888105524       -6.3682648426  W2        1989            0.0000000000
      5966      1989  TIP3      H1             14.7343213709       22.5675305524       -7.3147448426  W2        1989            0.0000000000
      5967      1989  TIP3      H2             14.8425913709       23.6380805524       -6.2498048426  W2        1989            0.0000000000
      5968      1990  TIP3      OH2             8.4631013709       21.4775105524       -4.5873648426  W2        1990            0.0000000000
      5969      1990  TIP3      H1              8.6151413709       21.1295505524       -3.7087148426  W2        1990            0.0000000000
      5970      1990  TIP3      H2              7.6121413709       21.1212405524       -4.8426448426  W2        1990            0.0000000000
      5971      1991  TIP3      OH2            17.9113213709       21.8428305524       -9.3660248426  W2        1991            0.0000000000
      5972      1991  TIP3      H1             18.2861613709       21.0984405524       -9.8367648426  W2        1991            0.0000000000
      5973      1991  TIP3      H2             17.9156913709       21.5728905524       -8.4476948426  W2        1991            0.0000000000
      5974      1992  TIP3      OH2            17.5801313709       21.7685405524       -6.6168048426  W2        1992            0.0000000000
      5975      1992  TIP3      H1             16.6451113709       21.8687305524       -6.4381048426  W2        1992            0.0000000000
      5976      1992  TIP3      H2             17.8603213709       21.0591405524       -6.0384848426  W2        1992            0.0000000000
      5977      1993  TIP3      OH2            20.5687213709       10.8357705524        5.4297551574  W2        1993            0.0000000000
      5978      1993  TIP3      H1             20.1614013709       11.3163305524        4.7090851574  W2        1993            0.0000000000
      5979      1993  TIP3      H2             20.6092913709        9.9303705524        5.1218351574  W2        1993            0.0000000000
      5980      1994  TIP3      OH2             7.7176713709       17.2197105524        3.4264251574  W2        1994            0.0000000000
      5981      1994  TIP3      H1              7.9338013709       16.8582705524        4.2860051574  W2        1994            0.0000000000
      5982      1994  TIP3      H2              6.8621413709       16.8450905524        3.2167751574  W2        1994            0.0000000000
      5983      1995  TIP3      OH2            10.3364713709        5.6897605524       -0.5781548426  W2        1995            0.0000000000
      5984      1995  TIP3      H1              9.4748413709        5.6025805524       -0.9858648426  W2        1995            0.0000000000
      5985      1995  TIP3      H2             10.3140413709        6.5457705524       -0.1503948426  W2        1995            0.0000000000
      5986      1996  TIP3      OH2            14.9992513709        5.4118005524        2.7965451574  W2        1996            0.0000000000
      5987      1996  TIP3      H1             15.4195613709        4.9965105524        3.5496051574  W2        1996            0.0000000000
      5988      1996  TIP3      H2             14.0662113709        5.2331305524        2.9137451574  W2        1996            0.0000000000
      5989      1997  TIP3      OH2            18.3257413709        9.1673205524        3.6499951574  W2        1997            0.0000000000
      5990      1997  TIP3      H1             17.8116913709        9.0415405524        4.4475951574  W2        1997            0.0000000000
      5991      1997  TIP3      H2             18.1702113709       10.0796305524        3.4056151574  W2        1997            0.0000000000
      5992      1998  TIP3      OH2            19.0882313709       14.0283205524      -10.5887048426  W2        1998            0.0000000000
      5993      1998  TIP3      H1             19.1303113709       13.8057105524      -11.5187048426  W2        1998            0.0000000000
      5994      1998  TIP3      H2             19.9374413709       14.4270305524      -10.3987148426  W2        1998            0.0000000000
      5995      1999  TIP3      OH2            14.6609813709        7.9041405524       -9.9183748426  W2        1999            0.0000000000
      5996      1999  TIP3      H1             14.4074613709        7.9233005524       -8.9955648426  W2        1999            0.0000000000
      5997      1999  TIP3      H2             14.4041913709        7.0326805524      -10.2197548426  W2        1999            0.0000000000
      5998      2000  TIP3      OH2            10.4274813709       10.6552105524        0.5168651574  W2        2000            0.0000000000
      5999      2000  TIP3      H1              9.7856913709       10.6149405524        1.2258751574  W2        2000            0.0000000000
      6000      2000  TIP3      H2             10.4646813709       11.5816805524        0.2791651574  W2        2000            0.0000000000
      6001      2001  TIP3      OH2            10.4243913709       10.8762205524       -4.5711348426  W2        2001            0.0000000000
      6002      2001  TIP3      H1              9.5316813709       10.5358305524       -4.6297548426  W2        2001            0.0000000000
      6003      2001  TIP3      H2             10.8750513709       10.4993105524       -5.3268148426  W2        2001            0.0000000000
      6004      2002  TIP3      OH2            15.9599413709       11.2922505524       -5.7540548426  W2        2002            0.0000000000
      6005      2002  TIP3      H1             15.5509713709       12.1071105524       -6.0455748426  W2        2002            0.0000000000
      6006      2002  TIP3      H2             16.6805613709       11.1522605524       -6.3683448426  W2        2002            0.0000000000
      6007      2003  TIP3      OH2            15.0621013709       11.4678905524        5.7340151574  W2        2003            0.0000000000
      6008      2003  TIP3      H1             14.4994813709       10.7630505524        6.0547951574  W2        2003            0.0000000000
      6009      2003  TIP3      H2             15.8884413709       11.3470805524        6.2017751574  W2        2003            0.0000000000
      6010      2004  TIP3      OH2            16.9647113709       10.7382905524       -2.9400848426  W2        2004            0.0000000000
      6011      2004  TIP3      H1             16.7691613709       11.3439705524       -3.6550248426  W2        2004            0.0000000000
      6012      2004  TIP3      H2             17.1459713709        9.9048105524       -3.3744548426  W2        2004            0.0000000000
      6013      2005  TIP3      OH2             8.1775313709       10.9755605524        2.3840651574  W2        2005            0.0000000000
      6014      2005  TIP3      H1              8.1394713709       11.3757205524        3.2527751574  W2        2005            0.0000000000
      6015      2005  TIP3      H2              7.6866413709       10.1588005524        2.4743551574  W2        2005            0.0000000000
      6016      2006  TIP3      OH2            11.5432713709        8.3497905524      -10.8173348426  W2        2006            0.0000000000
      6017      2006  TIP3      H1             11.1123413709        7.9048005524      -10.0875948426  W2        2006            0.0000000000
      6018      2006  TIP3      H2             10.8251413709        8.7214205524      -11.3295848426  W2        2006            0.0000000000
      6019      2007  TIP3      OH2             4.7856113709        8.0917405524       -3.7654648426  W2        2007            0.0000000000
      6020      2007  TIP3      H1              5.4163813709        8.0629505524       -3.0460748426  W2        2007            0.0000000000
      6021      2007  TIP3      H2              5.2350413709        7.6666105524       -4.4958748426  W2        2007            0.0000000000
      6022      2008  TIP3      OH2             6.0598213709        8.8379405524       -8.3414248426  W2        2008            0.0000000000
      6023      2008  TIP3      H1              6.5339913709        9.4289305524       -8.9263348426  W2        2008            0.0000000000
      6024      2008  TIP3      H2              5.3424613709        9.3682305524       -7.9944148426  W2        2008            0.0000000000
      6025      2009  TIP3      OH2            16.2286313709       12.3764205524        1.7311551574  W2        2009            0.0000000000
      6026      2009  TIP3      H1             16.5521113709       11.7453905524        1.0882051574  W2        2009            0.0000000000
      6027      2009  TIP3      H2             15.7885613709       11.8416405524        2.3918951574  W2        2009            0.0000000000
      6028      2010  TIP3      OH2            13.0059213709        8.3039705524       -3.4847248426  W2        2010            0.0000000000
      6029      2010  TIP3      H1             12.0950313709        8.3606505524       -3.1961248426  W2        2010            0.0000000000
      6030      2010  TIP3      H2             13.5112113709        8.2435205524       -2.6740048426  W2        2010            0.0000000000
      6031      2011  TIP3      OH2             7.8342613709        9.9326005524       -4.6579648426  W2        2011            0.0000000000
      6032      2011  TIP3      H1              6.9450613709       10.0321505524       -4.9980048426  W2        2011            0.0000000000
      6033      2011  TIP3      H2              8.1307513709        9.0909005524       -5.0041748426  W2        2011            0.0000000000
      6034      2012  TIP3      OH2            11.4874413709        9.9328605524       -7.0015048426  W2        2012            0.0000000000
      6035      2012  TIP3      H1             12.4189913709       10.0618605524       -6.8231948426  W2        2012            0.0000000000
      6036      2012  TIP3      H2             11.2724713709       10.6022905524       -7.6510348426  W2        2012            0.0000000000
      6037      2013  TIP3      OH2            17.4111113709        7.5386005524       -0.2205448426  W2        2013            0.0000000000
      6038      2013  TIP3      H1             16.7342713709        7.6699105524        0.4434251574  W2        2013            0.0000000000
      6039      2013  TIP3      H2             16.9256013709        7.3835505524       -1.0307748426  W2        2013            0.0000000000
      6040      2014  TIP3      OH2            10.1614613709       11.1270805524       -9.4348948426  W2        2014            0.0000000000
      6041      2014  TIP3      H1              9.6189713709       10.7474605524      -10.1261348426  W2        2014            0.0000000000
      6042      2014  TIP3      H2             10.9949513709       11.3215505524       -9.8634848426  W2        2014            0.0000000000
      6043      2015  TIP3      OH2            20.6986213709       23.2101405524        6.0562151574  W2        2015            0.0000000000
      6044      2015  TIP3      H1             20.8984913709       23.6343305524        5.2217451574  W2        2015            0.0000000000
      6045      2015  TIP3      H2             21.3539913709       23.5539605524        6.6632551574  W2        2015            0.0000000000
      6046      2016  TIP3      OH2             8.2966013709       15.6842705524        5.6642651574  W2        2016            0.0000000000
      6047      2016  TIP3      H1              9.0288413709       15.9388605524        6.2257151574  W2        2016            0.0000000000
      6048      2016  TIP3      H2              7.5164713709       15.8888105524        6.1798051574  W2        2016            0.0000000000
      6049      2017  TIP3      OH2            14.3258913709       11.0912705524       -1.5977648426  W2        2017            0.0000000000
      6050      2017  TIP3      H1             14.8902313709       10.5449305524       -2.1448048426  W2        2017            0.0000000000
      6051      2017  TIP3      H2             14.1782313709       10.5694605524       -0.8090048426  W2        2017            0.0000000000
      6052      2018  TIP3      OH2             9.3278613709        7.2278805524       -5.1792848426  W2        2018            0.0000000000
      6053      2018  TIP3      H1              9.0108113709        6.3254105524       -5.2147448426  W2        2018            0.0000000000
      6054      2018  TIP3      H2             10.1092713709        7.2296205524       -5.7321248426  W2        2018            0.0000000000
      6055      2019  TIP3      OH2            12.9524813709        9.4798805524        0.8162751574  W2        2019            0.0000000000
      6056      2019  TIP3      H1             12.1170113709        9.9338305524        0.9265151574  W2        2019            0.0000000000
      6057      2019  TIP3      H2             13.4765413709        9.7557305524        1.5682651574  W2        2019            0.0000000000
      6058      2020  TIP3      OH2            13.4967413709       15.6926505524       -7.4990848426  W2        2020            0.0000000000
      6059      2020  TIP3      H1             12.7518413709       15.1851805524       -7.8212948426  W2        2020            0.0000000000
      6060      2020  TIP3      H2             13.3624613709       15.7414505524       -6.5526048426  W2        2020            0.0000000000
      6061      2021  TIP3      OH2            20.6466313709       14.8254705524        1.2876751574  W2        2021            0.0000000000
      6062      2021  TIP3      H1             21.2885113709       15.2821005524        0.7438951574  W2        2021            0.0000000000
      6063      2021  TIP3      H2             19.8163213709       14.9387105524        0.8250851574  W2        2021            0.0000000000
      6064      2022  TIP3      OH2            17.3944213709        8.5066405524       -9.2998248426  W2        2022            0.0000000000
      6065      2022  TIP3      H1             16.4558413709        8.6182005524       -9.4509448426  W2        2022            0.0000000000
      6066      2022  TIP3      H2             17.6916313709        9.3633305524       -8.9932548426  W2        2022            0.0000000000
      6067      2023  TIP3      OH2            15.0159513709       15.8769805524        3.7378251574  W2        2023            0.0000000000
      6068      2023  TIP3      H1             14.6705613709       15.4952205524        4.5447851574  W2        2023            0.0000000000
      6069      2023  TIP3      H2             14.8159613709       16.8103405524        3.8091151574  W2        2023            0.0000000000
      6070      2024  TIP3      OH2            18.1127713709       10.3739105524       -7.6390848426  W2        2024            0.0000000000
      6071      2024  TIP3      H1             19.0046713709       10.2364105524       -7.3199648426  W2        2024            0.0000000000
      6072      2024  TIP3      H2             18.1691313709       11.1645205524       -8.1757348426  W2        2024            0.0000000000
      6073      2025  TIP3      OH2             8.6215713709       14.9876505524       -1.7292948426  W2        2025            0.0000000000
      6074      2025  TIP3      H1              9.3662913709       14.9852205524       -2.3306448426  W2        2025            0.0000000000
      6075      2025  TIP3      H2              8.6992313709       14.1640305524       -1.2477848426  W2        2025            0.0000000000
      6076      2026  TIP3      OH2            15.6221513709       17.1510805524       -8.4736248426  W2        2026            0.0000000000
      6077      2026  TIP3      H1             15.3269913709       17.9778705524       -8.0921448426  W2        2026            0.0000000000
      6078      2026  TIP3      H2             14.9191513709       16.5317705524       -8.2774848426  W2        2026            0.0000000000
      6079      2027  TIP3      OH2             5.6295413709       13.4483405524        3.5855551574  W2        2027            0.0000000000
      6080      2027  TIP3      H1              5.8524013709       13.0303005524        4.4173051574  W2        2027            0.0000000000
      6081      2027  TIP3      H2              5.0275513709       12.8358405524        3.1628351574  W2        2027            0.0000000000
      6082      2028  TIP3      OH2            12.6460313709       12.9653305524        5.7985251574  W2        2028            0.0000000000
      6083      2028  TIP3      H1             12.3501113709       12.7996305524        4.9034351574  W2        2028            0.0000000000
      6084      2028  TIP3      H2             13.5775513709       12.7453605524        5.7879151574  W2        2028            0.0000000000
      6085      2029  TIP3      OH2            17.2663113709       18.3385305524        3.6883251574  W2        2029            0.0000000000
      6086      2029  TIP3      H1             16.3657413709       18.5217905524        3.4207151574  W2        2029            0.0000000000
      6087      2029  TIP3      H2             17.3004213709       18.5974605524        4.6092051574  W2        2029            0.0000000000
      6088      2030  TIP3      OH2            22.9976413709       10.5833205524       -7.9444148426  W2        2030            0.0000000000
      6089      2030  TIP3      H1             22.4432713709       10.1871205524       -8.6166648426  W2        2030            0.0000000000
      6090      2030  TIP3      H2             23.0980013709       11.4938405524       -8.2220848426  W2        2030            0.0000000000
      6091      2031  TIP3      OH2            22.9608413709       16.3834905524        4.8927351574  W2        2031            0.0000000000
      6092      2031  TIP3      H1             22.1096913709       16.6218705524        4.5253751574  W2        2031            0.0000000000
      6093      2031  TIP3      H2             23.5511813709       16.3668105524        4.1394451574  W2        2031            0.0000000000
      6094      2032  TIP3      OH2            21.2928113709       19.3693605524       -7.4792048426  W2        2032            0.0000000000
      6095      2032  TIP3      H1             20.9199213709       18.5437405524       -7.1701448426  W2        2032            0.0000000000
      6096      2032  TIP3      H2             21.5701613709       19.1863005524       -8.3768648426  W2        2032            0.0000000000
      6097      2033  TIP3      OH2            18.4532013709       14.1773105524       -0.4580148426  W2        2033            0.0000000000
      6098      2033  TIP3      H1             17.5248913709       13.9455005524       -0.4850848426  W2        2033            0.0000000000
      6099      2033  TIP3      H2             18.9043113709       13.4002905524       -0.7881348426  W2        2033            0.0000000000
      6100      2034  TIP3      OH2            10.9965113709       18.5054705524       -4.3251448426  W2        2034            0.0000000000
      6101      2034  TIP3      H1             11.5237313709       19.2789105524       -4.5252648426  W2        2034            0.0000000000
      6102      2034  TIP3      H2             10.1163613709       18.7303905524       -4.6267448426  W2        2034            0.0000000000
      6103      2035  TIP3      OH2             6.7512813709       13.3678805524       -9.7379048426  W2        2035            0.0000000000
      6104      2035  TIP3      H1              7.3672713709       13.9946005524       -9.3584248426  W2        2035            0.0000000000
      6105      2035  TIP3      H2              5.8895413709       13.6838605524       -9.4662548426  W2        2035            0.0000000000
      6106      2036  TIP3      OH2            12.4237413709       16.1684605524       -4.7487148426  W2        2036            0.0000000000
      6107      2036  TIP3      H1             12.1827413709       17.0939005524       -4.7071848426  W2        2036            0.0000000000
      6108      2036  TIP3      H2             11.6831013709       15.7095905524       -4.3523248426  W2        2036            0.0000000000
      6109      2037  TIP3      OH2            12.9384013709       20.3178205524        1.5663951574  W2        2037            0.0000000000
      6110      2037  TIP3      H1             13.3008713709       21.1723805524        1.3328351574  W2        2037            0.0000000000
      6111      2037  TIP3      H2             13.4699213709       20.0259805524        2.3070251574  W2        2037            0.0000000000
      6112      2038  TIP3      OH2            11.1068213709       21.1902205524       -5.2034948426  W2        2038            0.0000000000
      6113      2038  TIP3      H1             10.1568713709       21.2959605524       -5.1521648426  W2        2038            0.0000000000
      6114      2038  TIP3      H2             11.4586313709       22.0109605524       -4.8587448426  W2        2038            0.0000000000
      6115      2039  TIP3      OH2            16.4824813709       16.4168905524        1.2669551574  W2        2039            0.0000000000
      6116      2039  TIP3      H1             16.0566113709       16.1890605524        2.0933551574  W2        2039            0.0000000000
      6117      2039  TIP3      H2             17.0630613709       15.6780705524        1.0844851574  W2        2039            0.0000000000
      6118      2040  TIP3      OH2            18.6853713709       17.3459405524       -9.6591448426  W2        2040            0.0000000000
      6119      2040  TIP3      H1             19.0386813709       16.9659205524       -8.8547948426  W2        2040            0.0000000000
      6120      2040  TIP3      H2             17.7367213709       17.2524205524       -9.5722148426  W2        2040            0.0000000000
      6121      2041  TIP3      OH2            19.1409013709       20.9688405524        3.7364351574  W2        2041            0.0000000000
      6122      2041  TIP3      H1             18.5392213709       20.4131305524        3.2410651574  W2        2041            0.0000000000
      6123      2041  TIP3      H2             19.4222713709       21.6358205524        3.1101751574  W2        2041            0.0000000000
      6124      2042  TIP3      OH2            23.1888113709       21.8251905524       -9.4581248426  W2        2042            0.0000000000
      6125      2042  TIP3      H1             23.9326013709       22.4112405524       -9.5979648426  W2        2042            0.0000000000
      6126      2042  TIP3      H2             22.4946213709       22.3937705524       -9.1248848426  W2        2042            0.0000000000
      6127      2043  TIP3      OH2             7.2634913709        8.2016105524        3.1436951574  W2        2043            0.0000000000
      6128      2043  TIP3      H1              6.3707213709        8.5401505524        3.0760951574  W2        2043            0.0000000000
      6129      2043  TIP3      H2              7.1647713709        7.3462205524        3.5617751574  W2        2043            0.0000000000
      6130      2044  TIP3      OH2            19.5513013709       16.0181405524       -7.4323548426  W2        2044            0.0000000000
      6131      2044  TIP3      H1             19.2740613709       15.2900705524       -6.8762448426  W2        2044            0.0000000000
      6132      2044  TIP3      H2             20.4786013709       16.1373405524       -7.2270948426  W2        2044            0.0000000000
      6133      2045  TIP3      OH2             6.9146913709       20.0060505524        1.5786351574  W2        2045            0.0000000000
      6134      2045  TIP3      H1              7.1317213709       19.0742905524        1.5476051574  W2        2045            0.0000000000
      6135      2045  TIP3      H2              7.1610413709       20.2805505524        2.4619151574  W2        2045            0.0000000000
      6136      2046  TIP3      OH2            12.7761513709       18.4575505524      -11.2121448426  W2        2046            0.0000000000
      6137      2046  TIP3      H1             13.0151313709       17.7093605524      -11.7592548426  W2        2046            0.0000000000
      6138      2046  TIP3      H2             12.5072813709       18.0697205524      -10.3793648426  W2        2046            0.0000000000
      6139      2047  TIP3      OH2            11.7132113709       18.0279305524       -8.7558848426  W2        2047            0.0000000000
      6140      2047  TIP3      H1             11.8600113709       17.5079105524       -7.9657948426  W2        2047            0.0000000000
      6141      2047  TIP3      H2             11.7103813709       18.9346905524       -8.4492948426  W2        2047            0.0000000000
      6142      2048  TIP3      OH2             8.1663213709       15.2802605524       -8.2453448426  W2        2048            0.0000000000
      6143      2048  TIP3      H1              7.4802513709       15.6325105524       -7.6783748426  W2        2048            0.0000000000
      6144      2048  TIP3      H2              8.6891113709       16.0432205524       -8.4919148426  W2        2048            0.0000000000
      6145      2049  TIP3      OH2            15.9978313709        7.9426405524        2.0335551574  W2        2049            0.0000000000
      6146      2049  TIP3      H1             16.6966213709        8.0165105524        2.6835251574  W2        2049            0.0000000000
      6147      2049  TIP3      H2             15.6169713709        7.0781405524        2.1878451574  W2        2049            0.0000000000
      6148      2050  TIP3      OH2            16.7823213709        7.5948105524       -6.8692148426  W2        2050            0.0000000000
      6149      2050  TIP3      H1             17.0021513709        8.0663505524       -7.6726748426  W2        2050            0.0000000000
      6150      2050  TIP3      H2             17.3407213709        7.9890705524       -6.1991548426  W2        2050            0.0000000000
      6151      2051  TIP3      OH2            14.4509313709       19.7252905524       -8.0064648426  W2        2051            0.0000000000
      6152      2051  TIP3      H1             13.6345413709       20.2222605524       -7.9540348426  W2        2051            0.0000000000
      6153      2051  TIP3      H2             14.9805613709       20.2006405524       -8.6465848426  W2        2051            0.0000000000
      6154      2052  TIP3      OH2            13.9823113709        9.3226905524       -6.0343748426  W2        2052            0.0000000000
      6155      2052  TIP3      H1             14.7945713709        9.8270105524       -5.9882048426  W2        2052            0.0000000000
      6156      2052  TIP3      H2             13.7376113709        9.1776605524       -5.1204148426  W2        2052            0.0000000000
      6157      2053  TIP3      OH2            14.5179513709       10.3089605524        3.1502851574  W2        2053            0.0000000000
      6158      2053  TIP3      H1             14.6369813709       10.8825005524        3.9073251574  W2        2053            0.0000000000
      6159      2053  TIP3      H2             15.1734113709        9.6209005524        3.2650651574  W2        2053            0.0000000000
      6160      2054  TIP3      OH2            14.8659813709        6.4039905524       -5.0962648426  W2        2054            0.0000000000
      6161      2054  TIP3      H1             14.5193313709        7.0210505524       -4.4518348426  W2        2054            0.0000000000
      6162      2054  TIP3      H2             15.5246713709        6.9045605524       -5.5777148426  W2        2054            0.0000000000
      6163      2055  TIP3      OH2            11.7892413709       20.7690105524       -8.0247748426  W2        2055            0.0000000000
      6164      2055  TIP3      H1             11.9501113709       21.5687605524       -8.5255148426  W2        2055            0.0000000000
      6165      2055  TIP3      H2             11.5920213709       21.0756105524       -7.1397148426  W2        2055            0.0000000000
      6166      2056  TIP3      OH2            10.5236813709        7.4669305524       -8.4090148426  W2        2056            0.0000000000
      6167      2056  TIP3      H1             10.4401613709        8.3552405524       -8.0623748426  W2        2056            0.0000000000
      6168      2056  TIP3      H2             11.4137113709        7.2016005524       -8.1773348426  W2        2056            0.0000000000
      6169      2057  TIP3      OH2            20.7225313709        8.2159905524        3.9852551574  W2        2057            0.0000000000
      6170      2057  TIP3      H1             19.8061113709        8.4781605524        3.8976251574  W2        2057            0.0000000000
      6171      2057  TIP3      H2             21.0580313709        8.2128905524        3.0887851574  W2        2057            0.0000000000
      6172      2058  TIP3      OH2            19.3246313709       11.9660905524       -1.9190148426  W2        2058            0.0000000000
      6173      2058  TIP3      H1             18.5270713709       11.5511105524       -2.2475148426  W2        2058            0.0000000000
      6174      2058  TIP3      H2             19.7697413709       11.2754605524       -1.4279648426  W2        2058            0.0000000000
      6175      2059  TIP3      OH2             8.7822113709       17.8941505524       -9.3485648426  W2        2059            0.0000000000
      6176      2059  TIP3      H1              9.3743613709       18.5936305524       -9.0723248426  W2        2059            0.0000000000
      6177      2059  TIP3      H2              9.2415113709       17.4611005524      -10.0681048426  W2        2059            0.0000000000
      6178      2060  TIP3      OH2             7.0981313709       10.5584505524      -10.2326248426  W2        2060            0.0000000000
      6179      2060  TIP3      H1              7.0533913709       11.4977605524      -10.0539248426  W2        2060            0.0000000000
      6180      2060  TIP3      H2              6.2104513709       10.3229405524      -10.5024148426  W2        2060            0.0000000000
      6181      2061  TIP3      OH2            20.4110913709       21.2223405524       -0.2966648426  W2        2061            0.0000000000
      6182      2061  TIP3      H1             20.2555213709       21.9007805524       -0.9537348426  W2        2061            0.0000000000
      6183      2061  TIP3      H2             21.3437313709       21.2942705524       -0.0936048426  W2        2061            0.0000000000
      6184      2062  TIP3      OH2             7.9063313709        5.3401105524       -1.5595248426  W2        2062            0.0000000000
      6185      2062  TIP3      H1              7.6773113709        5.3993605524       -2.4870248426  W2        2062            0.0000000000
      6186      2062  TIP3      H2              7.4636713709        4.5486605524       -1.2531148426  W2        2062            0.0000000000
      6187      2063  TIP3      OH2             6.8366613709       19.2808205524       -5.3989448426  W2        2063            0.0000000000
      6188      2063  TIP3      H1              6.0045213709       19.7530905524       -5.3718048426  W2        2063            0.0000000000
      6189      2063  TIP3      H2              7.3824913709       19.7905805524       -5.9976348426  W2        2063            0.0000000000
      6190      2064  TIP3      OH2             6.1250313709       21.8931905524        5.9308551574  W2        2064            0.0000000000
      6191      2064  TIP3      H1              6.6652513709       21.6765905524        6.6907751574  W2        2064            0.0000000000
      6192      2064  TIP3      H2              5.6438313709       21.0877905524        5.7411051574  W2        2064            0.0000000000
      6193      2065  TIP3      OH2            10.7223713709       20.8126305524        7.5512751574  W2        2065            0.0000000000
      6194      2065  TIP3      H1             11.4900913709       20.3537105524        7.8921951574  W2        2065            0.0000000000
      6195      2065  TIP3      H2             10.7009913709       20.5866105524        6.6213951574  W2        2065            0.0000000000
      6196      2066  TIP3      OH2            14.8143313709       20.3206905524      -11.0735448426  W2        2066            0.0000000000
      6197      2066  TIP3      H1             14.1704313709       19.6895505524      -10.7521748426  W2        2066            0.0000000000
      6198      2066  TIP3      H2             15.5761613709       19.7894905524      -11.3051948426  W2        2066            0.0000000000
      6199      2067  TIP3      OH2            17.2992413709       19.1927405524        6.2804251574  W2        2067            0.0000000000
      6200      2067  TIP3      H1             16.9481913709       18.3360405524        6.5234651574  W2        2067            0.0000000000
      6201      2067  TIP3      H2             18.0255613709       19.3354105524        6.8873251574  W2        2067            0.0000000000
      6202      2068  TIP3      OH2            19.4186213709       20.1376805524      -10.8397448426  W2        2068            0.0000000000
      6203      2068  TIP3      H1             19.7016613709       19.3432005524      -10.3870548426  W2        2068            0.0000000000
      6204      2068  TIP3      H2             20.1584113709       20.3707805524      -11.4006348426  W2        2068            0.0000000000
      6205      2069  TIP3      OH2             6.0319813709       15.7036005524        6.8852851574  W2        2069            0.0000000000
      6206      2069  TIP3      H1              6.1760313709       14.8016705524        6.5989551574  W2        2069            0.0000000000
      6207      2069  TIP3      H2              5.2597213709       15.9898105524        6.3975151574  W2        2069            0.0000000000
      6208      2070  TIP3      OH2            10.3733513709       16.0471705524      -10.9822548426  W2        2070            0.0000000000
      6209      2070  TIP3      H1             10.4377613709       15.2531305524      -10.4516148426  W2        2070            0.0000000000
      6210      2070  TIP3      H2             11.0262713709       15.9284505524      -11.6720548426  W2        2070            0.0000000000
      6211      2071  TIP3      OH2            12.6875913709       15.6734105524        6.3179251574  W2        2071            0.0000000000
      6212      2071  TIP3      H1             12.3589713709       15.9442205524        5.4606651574  W2        2071            0.0000000000
      6213      2071  TIP3      H2             12.8394113709       14.7323905524        6.2304251574  W2        2071            0.0000000000
      6214      2072  TIP3      OH2            15.7256913709       17.0943405524      -11.2464548426  W2        2072            0.0000000000
      6215      2072  TIP3      H1             15.4571013709       17.2745505524      -10.3455648426  W2        2072            0.0000000000
      6216      2072  TIP3      H2             15.5192513709       16.1689605524      -11.3778748426  W2        2072            0.0000000000
      6217      2073  TIP3      OH2            18.4221113709       15.5891405524        3.7011551574  W2        2073            0.0000000000
      6218      2073  TIP3      H1             19.1675913709       16.1775105524        3.5815551574  W2        2073            0.0000000000
      6219      2073  TIP3      H2             17.6647913709       16.1711105524        3.7644651574  W2        2073            0.0000000000
      6220      2074  TIP3      OH2             6.8646313709       12.9039305524        6.3052151574  W2        2074            0.0000000000
      6221      2074  TIP3      H1              7.2727513709       12.0465905524        6.1842751574  W2        2074            0.0000000000
      6222      2074  TIP3      H2              6.6043913709       12.9180605524        7.2262451574  W2        2074            0.0000000000
      6223      2075  TIP3      OH2            11.5227313709       14.0197905524       -8.6764548426  W2        2075            0.0000000000
      6224      2075  TIP3      H1             11.0629313709       13.5356205524       -7.9906048426  W2        2075            0.0000000000
      6225      2075  TIP3      H2             11.7776013709       13.3513305524       -9.3124048426  W2        2075            0.0000000000
      6226      2076  TIP3      OH2            10.8116613709       11.9125005524        3.6795051574  W2        2076            0.0000000000
      6227      2076  TIP3      H1             10.1932713709       12.5871605524        3.9599751574  W2        2076            0.0000000000
      6228      2076  TIP3      H2             11.1557813709       12.2338905524        2.8461251574  W2        2076            0.0000000000
      6229      2077  TIP3      OH2            12.5937713709       12.2629705524      -10.4141348426  W2        2077            0.0000000000
      6230      2077  TIP3      H1             12.4132713709       12.1080905524      -11.3413048426  W2        2077            0.0000000000
      6231      2077  TIP3      H2             13.5438213709       12.3708405524      -10.3693448426  W2        2077            0.0000000000
      6232      2078  TIP3      OH2            15.8314813709       14.3840305524        6.9569851574  W2        2078            0.0000000000
      6233      2078  TIP3      H1             16.7846013709       14.4679405524        6.9295851574  W2        2078            0.0000000000
      6234      2078  TIP3      H2             15.6709413709       13.6722105524        7.5764751574  W2        2078            0.0000000000
      6235      2079  TIP3      OH2            21.9836013709       14.6173905524      -10.9683248426  W2        2079            0.0000000000
      6236      2079  TIP3      H1             21.7100813709       14.1929405524      -11.7814948426  W2        2079            0.0000000000
      6237      2079  TIP3      H2             22.0230113709       15.5488405524      -11.1852848426  W2        2079            0.0000000000
      6238      2080  TIP3      OH2            11.1510313709        9.2675805524        4.7618151574  W2        2080            0.0000000000
      6239      2080  TIP3      H1             11.3011213709        8.5387105524        4.1597851574  W2        2080            0.0000000000
      6240      2080  TIP3      H2             11.1532713709       10.0447505524        4.2030351574  W2        2080            0.0000000000
      6241      2081  TIP3      OH2            11.5636013709        7.6371605524        2.2545551574  W2        2081            0.0000000000
      6242      2081  TIP3      H1             12.0993513709        8.0888305524        1.6024851574  W2        2081            0.0000000000
      6243      2081  TIP3      H2             10.7115613709        7.5291405524        1.8319651574  W2        2081            0.0000000000
      6244      2082  TIP3      OH2            13.1454413709       13.0767805524        2.4940751574  W2        2082            0.0000000000
      6245      2082  TIP3      H1             13.8959213709       12.9205305524        1.9208551574  W2        2082            0.0000000000
      6246      2082  TIP3      H2             12.8062713709       13.9284405524        2.2186251574  W2        2082            0.0000000000
      6247      2083  TIP3      OH2            17.5610613709       10.8919605524        7.5226051574  W2        2083            0.0000000000
      6248      2083  TIP3      H1             17.7531913709        9.9609005524        7.4110551574  W2        2083            0.0000000000
      6249      2083  TIP3      H2             18.4186913709       11.3169105524        7.5121451574  W2        2083            0.0000000000
      6250      2084  TIP3      OH2            18.8777813709       13.6804805524        5.5998751574  W2        2084            0.0000000000
      6251      2084  TIP3      H1             18.5962813709       14.3899405524        5.0222551574  W2        2084            0.0000000000
      6252      2084  TIP3      H2             19.8202113709       13.6077805524        5.4489951574  W2        2084            0.0000000000
      6253      2085  TIP3      OH2             9.6296613709       10.4659305524        6.6733751574  W2        2085            0.0000000000
      6254      2085  TIP3      H1              8.8625613709        9.9334105524        6.4631351574  W2        2085            0.0000000000
      6255      2085  TIP3      H2             10.3085613709       10.1559705524        6.0740051574  W2        2085            0.0000000000
      6256      2086  TIP3      OH2            12.3691513709        5.0937305524        2.6859151574  W2        2086            0.0000000000
      6257      2086  TIP3      H1             12.2711113709        6.0400505524        2.5805351574  W2        2086            0.0000000000
      6258      2086  TIP3      H2             11.6267713709        4.7211105524        2.2102651574  W2        2086            0.0000000000
      6259      2087  TIP3      OH2            13.6332013709        9.4152705524        6.2497551574  W2        2087            0.0000000000
      6260      2087  TIP3      H1             13.3977413709        9.1959405524        7.1512451574  W2        2087            0.0000000000
      6261      2087  TIP3      H2             12.8498913709        9.2083905524        5.7400051574  W2        2087            0.0000000000
      6262      2088  TIP3      OH2            16.3488613709        8.5426205524        5.3251051574  W2        2088            0.0000000000
      6263      2088  TIP3      H1             15.4014013709        8.5745905524        5.4574351574  W2        2088            0.0000000000
      6264      2088  TIP3      H2             16.6615313709        7.9173305524        5.9789251574  W2        2088            0.0000000000
      6265      2089  TIP3      OH2            17.9830113709        7.1767305524        7.3302951574  W2        2089            0.0000000000
      6266      2089  TIP3      H1             17.8861913709        6.2244605524        7.3244851574  W2        2089            0.0000000000
      6267      2089  TIP3      H2             17.6613213709        7.4454105524        8.1908451574  W2        2089            0.0000000000
      6268      2090  TIP3      OH2             7.8099413709        8.3863105524        6.3778451574  W2        2090            0.0000000000
      6269      2090  TIP3      H1              8.0216813709        7.6799205524        5.7675951574  W2        2090            0.0000000000
      6270      2090  TIP3      H2              7.6986913709        7.9489105524        7.2219651574  W2        2090            0.0000000000
      6271      2091  TIP3      OH2            12.5909613709        4.3874705524        5.3571951574  W2        2091            0.0000000000
      6272      2091  TIP3      H1             13.3028013709        3.7476905524        5.3431051574  W2        2091            0.0000000000
      6273      2091  TIP3      H2             12.4900013709        4.6543005524        4.4435051574  W2        2091            0.0000000000
      6274      2092  TIP3      OH2            12.9447113709        6.0703105524        7.4108251574  W2        2092            0.0000000000
      6275      2092  TIP3      H1             12.8129313709        5.5946905524        6.5906751574  W2        2092            0.0000000000
      6276      2092  TIP3      H2             12.3454513709        6.8146705524        7.3555351574  W2        2092            0.0000000000
      6277      2093  TIP3      OH2            12.4909413709       22.9533405524       -9.4127748426  W2        2093            0.0000000000
      6278      2093  TIP3      H1             13.4240113709       23.1112105524       -9.2689348426  W2        2093            0.0000000000
      6279      2093  TIP3      H2             12.2268213709       23.6286405524      -10.0376248426  W2        2093            0.0000000000
      6280      2094  TIP3      OH2             6.0594313709       17.5897205524       -9.9299648426  W2        2094            0.0000000000
      6281      2094  TIP3      H1              6.9733513709       17.6686105524       -9.6565748426  W2        2094            0.0000000000
      6282      2094  TIP3      H2              6.0667413709       16.9026805524      -10.5964048426  W2        2094            0.0000000000
      6283      2095  TIP3      OH2             4.7084913709       22.9825705524       -4.8525748426  W2        2095            0.0000000000
      6284      2095  TIP3      H1              4.0612013709       22.5207405524       -5.3854548426  W2        2095            0.0000000000
      6285      2095  TIP3      H2              5.0629513709       22.3109005524       -4.2699548426  W2        2095            0.0000000000
      6286      2096  TIP3      OH2             5.5784113709       21.0632705524       -3.0479548426  W2        2096            0.0000000000
      6287      2096  TIP3      H1              5.2440913709       20.1830005524       -2.8759348426  W2        2096            0.0000000000
      6288      2096  TIP3      H2              5.8006513709       21.4087705524       -2.1833948426  W2        2096            0.0000000000
      6289      2097  TIP3      OH2            23.1268913709       21.8729105524       -0.0674748426  W2        2097            0.0000000000
      6290      2097  TIP3      H1             23.1055613709       22.0577505524        0.8714651574  W2        2097            0.0000000000
      6291      2097  TIP3      H2             23.8175113709       22.4413105524       -0.4083348426  W2        2097            0.0000000000
      6292      2098  TIP3      OH2            22.6901813709       21.4400205524        2.8544351574  W2        2098            0.0000000000
      6293      2098  TIP3      H1             22.2030513709       20.7044305524        2.4831751574  W2        2098            0.0000000000
      6294      2098  TIP3      H2             23.2394513709       21.0464105524        3.5323751574  W2        2098            0.0000000000
      6295      2099  TIP3      OH2            21.1409113709       17.2298305524        7.4924651574  W2        2099            0.0000000000
      6296      2099  TIP3      H1             20.2750213709       17.1248005524        7.8866951574  W2        2099            0.0000000000
      6297      2099  TIP3      H2             21.5175013709       17.9881605524        7.9389351574  W2        2099            0.0000000000
      6298      2100  TIP3      OH2            22.4418813709       15.4862005524       -6.9932848426  W2        2100            0.0000000000
      6299      2100  TIP3      H1             23.2920213709       15.9072905524       -6.8661248426  W2        2100            0.0000000000
      6300      2100  TIP3      H2             22.4473913709       14.7462105524       -6.3861448426  W2        2100            0.0000000000
      6301      2101  TIP3      OH2            22.8364413709       13.5399405524       -5.1697148426  W2        2101            0.0000000000
      6302      2101  TIP3      H1             22.1099013709       13.0602005524       -4.7719548426  W2        2101            0.0000000000
      6303      2101  TIP3      H2             23.4177713709       13.7454105524       -4.4375548426  W2        2101            0.0000000000
      6304      2102  TIP3      OH2            22.5955613709       16.3246905524       -0.2219548426  W2        2102            0.0000000000
      6305      2102  TIP3      H1             23.4289813709       15.9466905524       -0.5025948426  W2        2102            0.0000000000
      6306      2102  TIP3      H2             22.7075913709       17.2678105524       -0.3410448426  W2        2102            0.0000000000
      6307      2103  TIP3      OH2            21.0817913709       19.2024405524        2.0848851574  W2        2103            0.0000000000
      6308      2103  TIP3      H1             20.4343213709       19.5275905524        2.7104051574  W2        2103            0.0000000000
      6309      2103  TIP3      H2             20.5641913709       18.7622105524        1.4107151574  W2        2103            0.0000000000
      6310      2104  TIP3      OH2            23.1047513709       13.4407905524       -8.7785848426  W2        2104            0.0000000000
      6311      2104  TIP3      H1             22.5828613709       13.7972005524       -9.4974948426  W2        2104            0.0000000000
      6312      2104  TIP3      H2             23.0716713709       14.1155705524       -8.1004948426  W2        2104            0.0000000000
      6313      2105  TIP3      OH2            21.4536513709       10.6803505524      -10.2278748426  W2        2105            0.0000000000
      6314      2105  TIP3      H1             21.5500913709       11.3470505524      -10.9079048426  W2        2105            0.0000000000
      6315      2105  TIP3      H2             21.3136113709        9.8649805524      -10.7093248426  W2        2105            0.0000000000
      6316      2106  TIP3      OH2            20.6231213709       12.0605905524       -4.6068448426  W2        2106            0.0000000000
      6317      2106  TIP3      H1             20.4730013709       11.1154505524       -4.6270648426  W2        2106            0.0000000000
      6318      2106  TIP3      H2             20.2695713709       12.3417305524       -3.7629348426  W2        2106            0.0000000000
      6319      2107  TIP3      OH2             5.6583613709       14.1388105524       -0.5964648426  W2        2107            0.0000000000
      6320      2107  TIP3      H1              5.8426513709       14.0569805524       -1.5321748426  W2        2107            0.0000000000
      6321      2107  TIP3      H2              6.5076513709       14.0145105524       -0.1728248426  W2        2107            0.0000000000
      6322      2108  TIP3      OH2            21.4794113709       14.0309205524        5.0319851574  W2        2108            0.0000000000
      6323      2108  TIP3      H1             22.0621413709       13.2961505524        5.2237051574  W2        2108            0.0000000000
      6324      2108  TIP3      H2             22.0433413709       14.8029505524        5.0785651574  W2        2108            0.0000000000
      6325      2109  TIP3      OH2            22.9761213709       11.9335005524        5.7165251574  W2        2109            0.0000000000
      6326      2109  TIP3      H1             22.1127913709       11.5547105524        5.5509951574  W2        2109            0.0000000000
      6327      2109  TIP3      H2             23.5804913709       11.1949805524        5.6421051574  W2        2109            0.0000000000
      6328      2110  TIP3      OH2            20.7010313709        8.0883305524      -11.1103248426  W2        2110            0.0000000000
      6329      2110  TIP3      H1             21.3116113709        7.7170105524      -10.4735048426  W2        2110            0.0000000000
      6330      2110  TIP3      H2             19.8641813709        7.6670205524      -10.9143248426  W2        2110            0.0000000000
      6331      2111  TIP3      OH2            20.3336013709        9.6431705524       -6.1443348426  W2        2111            0.0000000000
      6332      2111  TIP3      H1             20.6133113709        8.7362105524       -6.0201648426  W2        2111            0.0000000000
      6333      2111  TIP3      H2             21.0927713709       10.0773205524       -6.5334148426  W2        2111            0.0000000000
      6334      2112  TIP3      OH2            20.9454313709       10.2249105524       -0.7084448426  W2        2112            0.0000000000
      6335      2112  TIP3      H1             21.8782313709       10.4369005524       -0.7428448426  W2        2112            0.0000000000
      6336      2112  TIP3      H2             20.7101813709       10.3261205524        0.2138551574  W2        2112            0.0000000000
      6337      2113  TIP3      OH2            20.9746213709       10.9614405524        2.0674951574  W2        2113            0.0000000000
      6338      2113  TIP3      H1             20.1317513709       11.2294805524        2.4334751574  W2        2113            0.0000000000
      6339      2113  TIP3      H2             21.4170513709       11.7836305524        1.8566051574  W2        2113            0.0000000000
      6340      2114  TIP3      OH2             5.2558413709        9.4093105524        5.5444151574  W2        2114            0.0000000000
      6341      2114  TIP3      H1              6.1753313709        9.2871405524        5.7807251574  W2        2114            0.0000000000
      6342      2114  TIP3      H2              4.8062913709        8.6592805524        5.9337651574  W2        2114            0.0000000000
      6343      2115  TIP3      OH2            23.2577813709        4.9414605524        7.4209951574  W2        2115            0.0000000000
      6344      2115  TIP3      H1             23.6074813709        4.2878105524        6.8154651574  W2        2115            0.0000000000
      6345      2115  TIP3      H2             23.4047313709        5.7788705524        6.9812551574  W2        2115            0.0000000000
      6346      2116  TIP3      OH2            20.9470813709        6.9061005524       -6.0961348426  W2        2116            0.0000000000
      6347      2116  TIP3      H1             21.1295813709        6.4572505524       -5.2706348426  W2        2116            0.0000000000
      6348      2116  TIP3      H2             20.3473713709        6.3215405524       -6.5596748426  W2        2116            0.0000000000
      6349      2117  TIP3      OH2             6.4770913709        7.7214705524       -1.5642948426  W2        2117            0.0000000000
      6350      2117  TIP3      H1              6.9222513709        6.9297205524       -1.2623248426  W2        2117            0.0000000000
      6351      2117  TIP3      H2              6.9433913709        8.4379905524       -1.1337348426  W2        2117            0.0000000000
      6352      2118  TIP3      OH2             4.7811213709       10.7207705524       -0.4952748426  W2        2118            0.0000000000
      6353      2118  TIP3      H1              5.2731013709       10.4998205524       -1.2860748426  W2        2118            0.0000000000
      6354      2118  TIP3      H2              5.1432113709       11.5611105524       -0.2143248426  W2        2118            0.0000000000
      6355      2119  TIP3      OH2            22.7775013709        7.0509205524        5.7701251574  W2        2119            0.0000000000
      6356      2119  TIP3      H1             21.8600713709        7.3216305524        5.7344751574  W2        2119            0.0000000000
      6357      2119  TIP3      H2             22.9004413709        6.5157605524        4.9860951574  W2        2119            0.0000000000
      6358      2120  TIP3      OH2            22.8137013709        6.9739105524       -9.5681048426  W2        2120            0.0000000000
      6359      2120  TIP3      H1             23.2259613709        6.2524805524      -10.0433048426  W2        2120            0.0000000000
      6360      2120  TIP3      H2             23.4953513709        7.6433705524       -9.5096748426  W2        2120            0.0000000000
      6361      2121  TIP3      OH2             5.0947713709        6.9786805524       -6.4410348426  W2        2121            0.0000000000
      6362      2121  TIP3      H1              4.1696113709        7.1873405524       -6.5704848426  W2        2121            0.0000000000
      6363      2121  TIP3      H2              5.5487613709        7.4627605524       -7.1308048426  W2        2121            0.0000000000
      6364      2122  TIP3      OH2            19.8654913709       21.9628505524       -4.4952948426  W2        2122            0.0000000000
      6365      2122  TIP3      H1             20.5177813709       21.6150605524       -5.1033848426  W2        2122            0.0000000000
      6366      2122  TIP3      H2             20.3758713709       22.4511705524       -3.8493248426  W2        2122            0.0000000000
      6367      2123  TIP3      OH2             5.0583113709        5.7165805524        1.9032151574  W2        2123            0.0000000000
      6368      2123  TIP3      H1              4.3933613709        5.4706105524        2.5463051574  W2        2123            0.0000000000
      6369      2123  TIP3      H2              4.6154413709        6.3386205524        1.3260151574  W2        2123            0.0000000000
      6370      2124  TIP3      OH2             7.2502413709       18.8919905524        6.0477951574  W2        2124            0.0000000000
      6371      2124  TIP3      H1              6.4294913709       19.0666405524        5.5872651574  W2        2124            0.0000000000
      6372      2124  TIP3      H2              6.9980213709       18.8184605524        6.9682351574  W2        2124            0.0000000000
      6373      2125  TIP3      OH2            10.2045313709       19.8661105524        2.3061951574  W2        2125            0.0000000000
      6374      2125  TIP3      H1              9.7796413709       20.6759605524        2.0236551574  W2        2125            0.0000000000
      6375      2125  TIP3      H2             11.1088113709       19.9515205524        2.0041751574  W2        2125            0.0000000000
      6376      2126  TIP3      OH2            14.5156713709       21.2651105524        5.2655651574  W2        2126            0.0000000000
      6377      2126  TIP3      H1             14.7004213709       20.9317205524        6.1435951574  W2        2126            0.0000000000
      6378      2126  TIP3      H2             15.3621213709       21.5749705524        4.9434851574  W2        2126            0.0000000000
      6379      2127  TIP3      OH2            16.8607113709       22.5510005524        4.5097051574  W2        2127            0.0000000000
      6380      2127  TIP3      H1             17.5376013709       21.9182305524        4.2696251574  W2        2127            0.0000000000
      6381      2127  TIP3      H2             17.1825913709       22.9520505524        5.3170351574  W2        2127            0.0000000000
      6382      2128  TIP3      OH2            21.7780913709        5.1405505524        3.5892051574  W2        2128            0.0000000000
      6383      2128  TIP3      H1             20.9654413709        5.4655805524        3.2016751574  W2        2128            0.0000000000
      6384      2128  TIP3      H2             22.0109413709        4.3804005524        3.0561151574  W2        2128            0.0000000000
      6385      2129  TIP3      OH2             7.6062013709       23.1225005524        2.3537251574  W2        2129            0.0000000000
      6386      2129  TIP3      H1              6.8858413709       23.5626005524        1.9024951574  W2        2129            0.0000000000
      6387      2129  TIP3      H2              7.2406013709       22.8719705524        3.2021251574  W2        2129            0.0000000000
      6388      2130  TIP3      OH2            10.0734613709       22.7228905524        1.3834451574  W2        2130            0.0000000000
      6389      2130  TIP3      H1              9.2086813709       22.7947405524        1.7874551574  W2        2130            0.0000000000
      6390      2130  TIP3      H2             10.0183613709       23.2696205524        0.5996951574  W2        2130            0.0000000000
      6391      2131  TIP3      OH2            14.7840213709       22.6107805524        0.5590451574  W2        2131            0.0000000000
      6392      2131  TIP3      H1             14.3274213709       23.1397505524       -0.0951148426  W2        2131            0.0000000000
      6393      2131  TIP3      H2             14.9468213709       23.2139205524        1.2842751574  W2        2131            0.0000000000
      6394      2132  TIP3      OH2            17.1116513709       21.4887405524        1.5040751574  W2        2132            0.0000000000
      6395      2132  TIP3      H1             16.2070213709       21.6537605524        1.2382851574  W2        2132            0.0000000000
      6396      2132  TIP3      H2             17.5405113709       22.3419605524        1.4384151574  W2        2132            0.0000000000
      6397      2133  TIP3      OH2            19.7158413709       23.0586505524        1.7988551574  W2        2133            0.0000000000
      6398      2133  TIP3      H1             19.5340413709       23.9745405524        1.5883451574  W2        2133            0.0000000000
      6399      2133  TIP3      H2             19.8926213709       22.6483605524        0.9523151574  W2        2133            0.0000000000
      6400      2134  TIP3      OH2             7.0210113709       21.7457505524       -0.7360948426  W2        2134            0.0000000000
      6401      2134  TIP3      H1              7.0026113709       21.3202605524        0.1211351574  W2        2134            0.0000000000
      6402      2134  TIP3      H2              7.8258013709       21.4272505524       -1.1448748426  W2        2134            0.0000000000
      6403      2135  TIP3      OH2             9.1623213709       20.4556205524       -2.0811048426  W2        2135            0.0000000000
      6404      2135  TIP3      H1              8.9433913709       19.5393605524       -1.9115048426  W2        2135            0.0000000000
      6405      2135  TIP3      H2              9.9865413709       20.5956605524       -1.6149648426  W2        2135            0.0000000000
      6406      2136  TIP3      OH2            11.6995713709       20.9255505524       -1.2323048426  W2        2136            0.0000000000
      6407      2136  TIP3      H1             11.9121413709       20.0374505524       -1.5192148426  W2        2136            0.0000000000
      6408      2136  TIP3      H2             11.7640813709       20.8913205524       -0.2779048426  W2        2136            0.0000000000
      6409      2137  TIP3      OH2            15.2079413709        6.5896105524       -2.0879748426  W2        2137            0.0000000000
      6410      2137  TIP3      H1             14.5336213709        5.9601705524       -1.8323948426  W2        2137            0.0000000000
      6411      2137  TIP3      H2             15.7718613709        6.1055005524       -2.6911848426  W2        2137            0.0000000000
      6412      2138  TIP3      OH2            20.3506613709        4.6970105524       -1.9752648426  W2        2138            0.0000000000
      6413      2138  TIP3      H1             20.9544213709        5.2445505524       -2.4771648426  W2        2138            0.0000000000
      6414      2138  TIP3      H2             19.4808613709        5.0160505524       -2.2158548426  W2        2138            0.0000000000
      6415      2139  TIP3      OH2            22.0777013709        5.8358805524       -3.6421748426  W2        2139            0.0000000000
      6416      2139  TIP3      H1             22.6894513709        5.3214505524       -4.1688148426  W2        2139            0.0000000000
      6417      2139  TIP3      H2             22.4600413709        6.7130905524       -3.6187348426  W2        2139            0.0000000000
      6418      2140  TIP3      OH2             7.5346913709        5.2236405524       -4.2659848426  W2        2140            0.0000000000
      6419      2140  TIP3      H1              6.7576713709        4.9891305524       -4.7733948426  W2        2140            0.0000000000
      6420      2140  TIP3      H2              8.0650513709        4.4268505524       -4.2571848426  W2        2140            0.0000000000
      6421      2141  TIP3      OH2             6.3710313709        5.0214505524       -8.4623748426  W2        2141            0.0000000000
      6422      2141  TIP3      H1              6.8101013709        5.6325005524       -9.0540248426  W2        2141            0.0000000000
      6423      2141  TIP3      H2              5.7372713709        5.5598605524       -7.9883748426  W2        2141            0.0000000000
      6424      2142  TIP3      OH2            12.1139513709        5.1503505524       -4.4526748426  W2        2142            0.0000000000
      6425      2142  TIP3      H1             12.9882913709        5.5387805524       -4.4822448426  W2        2142            0.0000000000
      6426      2142  TIP3      H2             11.9780313709        4.9351305524       -3.5299548426  W2        2142            0.0000000000
      6427      2143  TIP3      OH2            17.6707913709        5.1803305524       -2.8035048426  W2        2143            0.0000000000
      6428      2143  TIP3      H1             17.7469513709        5.2754905524       -3.7529048426  W2        2143            0.0000000000
      6429      2143  TIP3      H2             17.3957113709        4.2726205524       -2.6745948426  W2        2143            0.0000000000
      6430      2144  TIP3      OH2            19.0240513709        5.2061105524       -7.1110048426  W2        2144            0.0000000000
      6431      2144  TIP3      H1             18.3211613709        5.8210305524       -7.3208648426  W2        2144            0.0000000000
      6432      2144  TIP3      H2             18.5791913709        4.3687805524       -6.9799148426  W2        2144            0.0000000000
      6433      2145  TIP3      OH2             6.2719813709       20.9696705524       -7.5648648426  W2        2145            0.0000000000
      6434      2145  TIP3      H1              5.5869713709       20.9315605524       -8.2323548426  W2        2145            0.0000000000
      6435      2145  TIP3      H2              6.2757013709       21.8824305524       -7.2766548426  W2        2145            0.0000000000
      6436      2146  TIP3      OH2             8.2319413709        6.9376005524      -10.0199648426  W2        2146            0.0000000000
      6437      2146  TIP3      H1              8.7232813709        6.3078405524      -10.5474148426  W2        2146            0.0000000000
      6438      2146  TIP3      H2              8.8555713709        7.2335405524       -9.3568448426  W2        2146            0.0000000000
      6439      2147  TIP3      OH2            13.2579513709        7.2307505524       -7.5629148426  W2        2147            0.0000000000
      6440      2147  TIP3      H1             13.4360813709        6.5840705524       -6.8800548426  W2        2147            0.0000000000
      6441      2147  TIP3      H2             13.2045713709        8.0645205524       -7.0958048426  W2        2147            0.0000000000
      6442      2148  TIP3      OH2            15.1363313709       22.1791605524       -9.1672448426  W2        2148            0.0000000000
      6443      2148  TIP3      H1             16.0023513709       22.5459005524       -9.3454248426  W2        2148            0.0000000000
      6444      2148  TIP3      H2             14.8896113709       21.7399605524       -9.9811648426  W2        2148            0.0000000000
      6445      2149  TIP3      OH2            21.8452913709       21.7421905524       -6.4881348426  W2        2149            0.0000000000
      6446      2149  TIP3      H1             21.6510013709       20.9944005524       -7.0531748426  W2        2149            0.0000000000
      6447      2149  TIP3      H2             21.8063013709       22.5002005524       -7.0713448426  W2        2149            0.0000000000
      6448      2150  TIP3      OH2             7.4924913709        5.7378305524        5.2516351574  W2        2150            0.0000000000
      6449      2150  TIP3      H1              7.1263113709        4.9720905524        5.6941051574  W2        2150            0.0000000000
      6450      2150  TIP3      H2              8.4053413709        5.7668505524        5.5381451574  W2        2150            0.0000000000
      6451      2151  TIP3      OH2             9.4655713709        5.0882705524        6.7873451574  W2        2151            0.0000000000
      6452      2151  TIP3      H1             10.3639313709        4.8142905524        6.6026851574  W2        2151            0.0000000000
      6453      2151  TIP3      H2              9.0788813709        4.3458705524        7.2516051574  W2        2151            0.0000000000
      6454      2152  TIP3      OH2             8.0901013709       21.8897505524      -10.5396548426  W2        2152            0.0000000000
      6455      2152  TIP3      H1              7.8225613709       22.1760405524       -9.6663448426  W2        2152            0.0000000000
      6456      2152  TIP3      H2              8.8613613709       21.3436705524      -10.3874048426  W2        2152            0.0000000000
      6457      2153  TIP3      OH2            17.8868013709        4.4208005524        6.9696251574  W2        2153            0.0000000000
      6458      2153  TIP3      H1             17.9635213709        3.9948705524        7.8233951574  W2        2153            0.0000000000
      6459      2153  TIP3      H2             18.7804613709        4.4342705524        6.6269751574  W2        2153            0.0000000000
      6460      2154  TIP3      OH2            21.0629113709       20.4934305524        5.6620451574  W2        2154            0.0000000000
      6461      2154  TIP3      H1             20.2811013709       20.3072305524        5.1421051574  W2        2154            0.0000000000
      6462      2154  TIP3      H2             20.9909013709       21.4228605524        5.8792951574  W2        2154            0.0000000000
      6463      2155  TIP3      OH2            26.7705813709       13.2491505524        0.7045751574  W2        2155            0.0000000000
      6464      2155  TIP3      H1             26.8117913709       12.6234805524        1.4278151574  W2        2155            0.0000000000
      6465      2155  TIP3      H2             27.4733513709       13.8730105524        0.8866151574  W2        2155            0.0000000000
      6466      2156  TIP3      OH2            27.6938913709       17.6990405524       -0.7605148426  W2        2156            0.0000000000
      6467      2156  TIP3      H1             27.3244113709       16.8970905524       -1.1300848426  W2        2156            0.0000000000
      6468      2156  TIP3      H2             28.6350013709       17.5305305524       -0.7141748426  W2        2156            0.0000000000
      6469      2157  TIP3      OH2            24.3039413709       11.3593005524       -5.3676348426  W2        2157            0.0000000000
      6470      2157  TIP3      H1             23.8562813709       12.2051705524       -5.3859848426  W2        2157            0.0000000000
      6471      2157  TIP3      H2             23.7430613709       10.7797205524       -5.8831248426  W2        2157            0.0000000000
      6472      2158  TIP3      OH2            25.0145513709       13.5212605524       -3.2418348426  W2        2158            0.0000000000
      6473      2158  TIP3      H1             25.2279013709       12.7514205524       -2.7145348426  W2        2158            0.0000000000
      6474      2158  TIP3      H2             25.7523113709       13.6109305524       -3.8450748426  W2        2158            0.0000000000
      6475      2159  TIP3      OH2            32.7915213709       16.0670805524       -0.4823148426  W2        2159            0.0000000000
      6476      2159  TIP3      H1             33.0953113709       15.3812205524       -1.0769048426  W2        2159            0.0000000000
      6477      2159  TIP3      H2             33.5129213709       16.1859505524        0.1354851574  W2        2159            0.0000000000
      6478      2160  TIP3      OH2            29.0870513709        8.5629605524       -2.8823548426  W2        2160            0.0000000000
      6479      2160  TIP3      H1             29.1301613709        9.4228105524       -3.3007248426  W2        2160            0.0000000000
      6480      2160  TIP3      H2             28.6294613709        8.0104305524       -3.5160348426  W2        2160            0.0000000000
      6481      2161  TIP3      OH2            25.7072013709       10.9595405524       -2.1202148426  W2        2161            0.0000000000
      6482      2161  TIP3      H1             26.3608613709       10.4097105524       -1.6882048426  W2        2161            0.0000000000
      6483      2161  TIP3      H2             25.7311313709       10.6854405524       -3.0370148426  W2        2161            0.0000000000
      6484      2162  TIP3      OH2            30.8636513709       12.5096705524       -2.9050648426  W2        2162            0.0000000000
      6485      2162  TIP3      H1             31.4797513709       11.9832105524       -2.3956648426  W2        2162            0.0000000000
      6486      2162  TIP3      H2             30.2775313709       11.8695405524       -3.3087048426  W2        2162            0.0000000000
      6487      2163  TIP3      OH2            27.8972413709        7.4808005524        1.1917251574  W2        2163            0.0000000000
      6488      2163  TIP3      H1             27.6784113709        8.0108605524        0.4253251574  W2        2163            0.0000000000
      6489      2163  TIP3      H2             27.2293313709        7.7073505524        1.8388651574  W2        2163            0.0000000000
      6490      2164  TIP3      OH2            30.4663813709       15.1563705524        1.4790951574  W2        2164            0.0000000000
      6491      2164  TIP3      H1             29.7262913709       15.7545205524        1.5826151574  W2        2164            0.0000000000
      6492      2164  TIP3      H2             31.1803313709       15.7103305524        1.1634551574  W2        2164            0.0000000000
      6493      2165  TIP3      OH2            27.4909713709        9.3729805524       -0.8560548426  W2        2165            0.0000000000
      6494      2165  TIP3      H1             28.1046013709       10.0057405524       -0.4828148426  W2        2165            0.0000000000
      6495      2165  TIP3      H2             28.0030413709        8.9004805524       -1.5123648426  W2        2165            0.0000000000
      6496      2166  TIP3      OH2            28.8738113709       17.1206705524        2.2662451574  W2        2166            0.0000000000
      6497      2166  TIP3      H1             28.8685713709       18.0000205524        1.8881751574  W2        2166            0.0000000000
      6498      2166  TIP3      H2             28.0202213709       17.0370805524        2.6912351574  W2        2166            0.0000000000
      6499      2167  TIP3      OH2            24.9949013709       16.7914605524       -6.9518248426  W2        2167            0.0000000000
      6500      2167  TIP3      H1             24.7229913709       17.0205605524       -7.8405348426  W2        2167            0.0000000000
      6501      2167  TIP3      H2             25.0404713709       17.6293405524       -6.4912948426  W2        2167            0.0000000000
      6502      2168  TIP3      OH2            31.9237113709        4.7863105524       -1.3557848426  W2        2168            0.0000000000
      6503      2168  TIP3      H1             31.8061313709        3.8379105524       -1.4099548426  W2        2168            0.0000000000
      6504      2168  TIP3      H2             31.0687213709        5.1189205524       -1.0826748426  W2        2168            0.0000000000
      6505      2169  TIP3      OH2            29.2413413709       14.4638205524       -4.0211148426  W2        2169            0.0000000000
      6506      2169  TIP3      H1             28.9108613709       14.0931605524       -4.8394148426  W2        2169            0.0000000000
      6507      2169  TIP3      H2             29.8297513709       13.7932205524       -3.6742848426  W2        2169            0.0000000000
      6508      2170  TIP3      OH2            30.6080913709       17.8918805524       -1.3398948426  W2        2170            0.0000000000
      6509      2170  TIP3      H1             30.5132213709       17.3131905524       -2.0964348426  W2        2170            0.0000000000
      6510      2170  TIP3      H2             31.3374513709       17.5204505524       -0.8436148426  W2        2170            0.0000000000
      6511      2171  TIP3      OH2            29.6078913709       13.2323805524       -0.3876148426  W2        2171            0.0000000000
      6512      2171  TIP3      H1             30.1731413709       13.3538005524       -1.1504948426  W2        2171            0.0000000000
      6513      2171  TIP3      H2             29.9267813709       13.8698805524        0.2512351574  W2        2171            0.0000000000
      6514      2172  TIP3      OH2            30.4879613709       17.6316505524        4.3295751574  W2        2172            0.0000000000
      6515      2172  TIP3      H1             30.1767113709       18.4139705524        4.7848951574  W2        2172            0.0000000000
      6516      2172  TIP3      H2             29.8379813709       17.4785605524        3.6437751574  W2        2172            0.0000000000
      6517      2173  TIP3      OH2            27.4079513709       13.8297605524        3.5581451574  W2        2173            0.0000000000
      6518      2173  TIP3      H1             27.4782713709       14.4804405524        4.2566451574  W2        2173            0.0000000000
      6519      2173  TIP3      H2             26.5171713709       13.9325105524        3.2232351574  W2        2173            0.0000000000
      6520      2174  TIP3      OH2            28.7275513709       19.7031505524        5.0929551574  W2        2174            0.0000000000
      6521      2174  TIP3      H1             28.7350813709       19.5671205524        4.1455051574  W2        2174            0.0000000000
      6522      2174  TIP3      H2             27.8115913709       19.5859605524        5.3449551574  W2        2174            0.0000000000
      6523      2175  TIP3      OH2            28.2316113709       13.5332505524       -6.4318348426  W2        2175            0.0000000000
      6524      2175  TIP3      H1             27.9397413709       14.3014205524       -6.9227048426  W2        2175            0.0000000000
      6525      2175  TIP3      H2             27.5571313709       12.8738705524       -6.5946948426  W2        2175            0.0000000000
      6526      2176  TIP3      OH2            24.3246213709       15.8961705524        2.3831451574  W2        2176            0.0000000000
      6527      2176  TIP3      H1             23.8234613709       15.8681105524        1.5681151574  W2        2176            0.0000000000
      6528      2176  TIP3      H2             24.3299913709       14.9904905524        2.6928751574  W2        2176            0.0000000000
      6529      2177  TIP3      OH2            24.0748913709       18.6765505524       -0.7328348426  W2        2177            0.0000000000
      6530      2177  TIP3      H1             25.0209513709       18.5322505524       -0.7518848426  W2        2177            0.0000000000
      6531      2177  TIP3      H2             23.9625213709       19.4608305524       -0.1957148426  W2        2177            0.0000000000
      6532      2178  TIP3      OH2            27.3191013709       21.4775105524       -4.5873648426  W2        2178            0.0000000000
      6533      2178  TIP3      H1             27.4711413709       21.1295505524       -3.7087148426  W2        2178            0.0000000000
      6534      2178  TIP3      H2             26.4681413709       21.1212405524       -4.8426448426  W2        2178            0.0000000000
      6535      2179  TIP3      OH2            26.5736713709       17.2197105524        3.4264251574  W2        2179            0.0000000000
      6536      2179  TIP3      H1             26.7898013709       16.8582705524        4.2860051574  W2        2179            0.0000000000
      6537      2179  TIP3      H2             25.7181413709       16.8450905524        3.2167751574  W2        2179            0.0000000000
      6538      2180  TIP3      OH2            29.1924713709        5.6897605524       -0.5781548426  W2        2180            0.0000000000
      6539      2180  TIP3      H1             28.3308413709        5.6025805524       -0.9858648426  W2        2180            0.0000000000
      6540      2180  TIP3      H2             29.1700413709        6.5457705524       -0.1503948426  W2        2180            0.0000000000
      6541      2181  TIP3      OH2            29.2834813709       10.6552105524        0.5168651574  W2        2181            0.0000000000
      6542      2181  TIP3      H1             28.6416913709       10.6149405524        1.2258751574  W2        2181            0.0000000000
      6543      2181  TIP3      H2             29.3206813709       11.5816805524        0.2791651574  W2        2181            0.0000000000
      6544      2182  TIP3      OH2            29.2803913709       10.8762205524       -4.5711348426  W2        2182            0.0000000000
      6545      2182  TIP3      H1             28.3876813709       10.5358305524       -4.6297548426  W2        2182            0.0000000000
      6546      2182  TIP3      H2             29.7310513709       10.4993105524       -5.3268148426  W2        2182            0.0000000000
      6547      2183  TIP3      OH2            27.0335313709       10.9755605524        2.3840651574  W2        2183            0.0000000000
      6548      2183  TIP3      H1             26.9954713709       11.3757205524        3.2527751574  W2        2183            0.0000000000
      6549      2183  TIP3      H2             26.5426413709       10.1588005524        2.4743551574  W2        2183            0.0000000000
      6550      2184  TIP3      OH2            30.3992713709        8.3497905524      -10.8173348426  W2        2184            0.0000000000
      6551      2184  TIP3      H1             29.9683413709        7.9048005524      -10.0875948426  W2        2184            0.0000000000
      6552      2184  TIP3      H2             29.6811413709        8.7214205524      -11.3295848426  W2        2184            0.0000000000
      6553      2185  TIP3      OH2            23.6416113709        8.0917405524       -3.7654648426  W2        2185            0.0000000000
      6554      2185  TIP3      H1             24.2723813709        8.0629505524       -3.0460748426  W2        2185            0.0000000000
      6555      2185  TIP3      H2             24.0910413709        7.6666105524       -4.4958748426  W2        2185            0.0000000000
      6556      2186  TIP3      OH2            24.9158213709        8.8379405524       -8.3414248426  W2        2186            0.0000000000
      6557      2186  TIP3      H1             25.3899913709        9.4289305524       -8.9263348426  W2        2186            0.0000000000
      6558      2186  TIP3      H2             24.1984613709        9.3682305524       -7.9944148426  W2        2186            0.0000000000
      6559      2187  TIP3      OH2            31.8619213709        8.3039705524       -3.4847248426  W2        2187            0.0000000000
      6560      2187  TIP3      H1             30.9510313709        8.3606505524       -3.1961248426  W2        2187            0.0000000000
      6561      2187  TIP3      H2             32.3672113709        8.2435205524       -2.6740048426  W2        2187            0.0000000000
      6562      2188  TIP3      OH2            26.6902613709        9.9326005524       -4.6579648426  W2        2188            0.0000000000
      6563      2188  TIP3      H1             25.8010613709       10.0321505524       -4.9980048426  W2        2188            0.0000000000
      6564      2188  TIP3      H2             26.9867513709        9.0909005524       -5.0041748426  W2        2188            0.0000000000
      6565      2189  TIP3      OH2            30.3434413709        9.9328605524       -7.0015048426  W2        2189            0.0000000000
      6566      2189  TIP3      H1             31.2749913709       10.0618605524       -6.8231948426  W2        2189            0.0000000000
      6567      2189  TIP3      H2             30.1284713709       10.6022905524       -7.6510348426  W2        2189            0.0000000000
      6568      2190  TIP3      OH2            29.0174613709       11.1270805524       -9.4348948426  W2        2190            0.0000000000
      6569      2190  TIP3      H1             28.4749713709       10.7474605524      -10.1261348426  W2        2190            0.0000000000
      6570      2190  TIP3      H2             29.8509513709       11.3215505524       -9.8634848426  W2        2190            0.0000000000
      6571      2191  TIP3      OH2            27.1526013709       15.6842705524        5.6642651574  W2        2191            0.0000000000
      6572      2191  TIP3      H1             27.8848413709       15.9388605524        6.2257151574  W2        2191            0.0000000000
      6573      2191  TIP3      H2             26.3724713709       15.8888105524        6.1798051574  W2        2191            0.0000000000
      6574      2192  TIP3      OH2            33.1818913709       11.0912705524       -1.5977648426  W2        2192            0.0000000000
      6575      2192  TIP3      H1             33.7462313709       10.5449305524       -2.1448048426  W2        2192            0.0000000000
      6576      2192  TIP3      H2             33.0342313709       10.5694605524       -0.8090048426  W2        2192            0.0000000000
      6577      2193  TIP3      OH2            28.1838613709        7.2278805524       -5.1792848426  W2        2193            0.0000000000
      6578      2193  TIP3      H1             27.8668113709        6.3254105524       -5.2147448426  W2        2193            0.0000000000
      6579      2193  TIP3      H2             28.9652713709        7.2296205524       -5.7321248426  W2        2193            0.0000000000
      6580      2194  TIP3      OH2            31.8084813709        9.4798805524        0.8162751574  W2        2194            0.0000000000
      6581      2194  TIP3      H1             30.9730113709        9.9338305524        0.9265151574  W2        2194            0.0000000000
      6582      2194  TIP3      H2             32.3325413709        9.7557305524        1.5682651574  W2        2194            0.0000000000
      6583      2195  TIP3      OH2            32.3527413709       15.6926505524       -7.4990848426  W2        2195            0.0000000000
      6584      2195  TIP3      H1             31.6078413709       15.1851805524       -7.8212948426  W2        2195            0.0000000000
      6585      2195  TIP3      H2             32.2184613709       15.7414505524       -6.5526048426  W2        2195            0.0000000000
      6586      2196  TIP3      OH2            27.4775713709       14.9876505524       -1.7292948426  W2        2196            0.0000000000
      6587      2196  TIP3      H1             28.2222913709       14.9852205524       -2.3306448426  W2        2196            0.0000000000
      6588      2196  TIP3      H2             27.5552313709       14.1640305524       -1.2477848426  W2        2196            0.0000000000
      6589      2197  TIP3      OH2            24.4855413709       13.4483405524        3.5855551574  W2        2197            0.0000000000
      6590      2197  TIP3      H1             24.7084013709       13.0303005524        4.4173051574  W2        2197            0.0000000000
      6591      2197  TIP3      H2             23.8835513709       12.8358405524        3.1628351574  W2        2197            0.0000000000
      6592      2198  TIP3      OH2            31.5020313709       12.9653305524        5.7985251574  W2        2198            0.0000000000
      6593      2198  TIP3      H1             31.2061113709       12.7996305524        4.9034351574  W2        2198            0.0000000000
      6594      2198  TIP3      H2             32.4335513709       12.7453605524        5.7879151574  W2        2198            0.0000000000
      6595      2199  TIP3      OH2            29.8525113709       18.5054705524       -4.3251448426  W2        2199            0.0000000000
      6596      2199  TIP3      H1             30.3797313709       19.2789105524       -4.5252648426  W2        2199            0.0000000000
      6597      2199  TIP3      H2             28.9723613709       18.7303905524       -4.6267448426  W2        2199            0.0000000000
      6598      2200  TIP3      OH2            25.6072813709       13.3678805524       -9.7379048426  W2        2200            0.0000000000
      6599      2200  TIP3      H1             26.2232713709       13.9946005524       -9.3584248426  W2        2200            0.0000000000
      6600      2200  TIP3      H2             24.7455413709       13.6838605524       -9.4662548426  W2        2200            0.0000000000
      6601      2201  TIP3      OH2            31.2797413709       16.1684605524       -4.7487148426  W2        2201            0.0000000000
      6602      2201  TIP3      H1             31.0387413709       17.0939005524       -4.7071848426  W2        2201            0.0000000000
      6603      2201  TIP3      H2             30.5391013709       15.7095905524       -4.3523248426  W2        2201            0.0000000000
      6604      2202  TIP3      OH2            31.7944013709       20.3178205524        1.5663951574  W2        2202            0.0000000000
      6605      2202  TIP3      H1             32.1568713709       21.1723805524        1.3328351574  W2        2202            0.0000000000
      6606      2202  TIP3      H2             32.3259213709       20.0259805524        2.3070251574  W2        2202            0.0000000000
      6607      2203  TIP3      OH2            29.9628213709       21.1902205524       -5.2034948426  W2        2203            0.0000000000
      6608      2203  TIP3      H1             29.0128713709       21.2959605524       -5.1521648426  W2        2203            0.0000000000
      6609      2203  TIP3      H2             30.3146313709       22.0109605524       -4.8587448426  W2        2203            0.0000000000
      6610      2204  TIP3      OH2            26.1194913709        8.2016105524        3.1436951574  W2        2204            0.0000000000
      6611      2204  TIP3      H1             25.2267213709        8.5401505524        3.0760951574  W2        2204            0.0000000000
      6612      2204  TIP3      H2             26.0207713709        7.3462205524        3.5617751574  W2        2204            0.0000000000
      6613      2205  TIP3      OH2            25.7706913709       20.0060505524        1.5786351574  W2        2205            0.0000000000
      6614      2205  TIP3      H1             25.9877213709       19.0742905524        1.5476051574  W2        2205            0.0000000000
      6615      2205  TIP3      H2             26.0170413709       20.2805505524        2.4619151574  W2        2205            0.0000000000
      6616      2206  TIP3      OH2            31.6321513709       18.4575505524      -11.2121448426  W2        2206            0.0000000000
      6617      2206  TIP3      H1             31.8711313709       17.7093605524      -11.7592548426  W2        2206            0.0000000000
      6618      2206  TIP3      H2             31.3632813709       18.0697205524      -10.3793648426  W2        2206            0.0000000000
      6619      2207  TIP3      OH2            30.5692113709       18.0279305524       -8.7558848426  W2        2207            0.0000000000
      6620      2207  TIP3      H1             30.7160113709       17.5079105524       -7.9657948426  W2        2207            0.0000000000
      6621      2207  TIP3      H2             30.5663813709       18.9346905524       -8.4492948426  W2        2207            0.0000000000
      6622      2208  TIP3      OH2            27.0223213709       15.2802605524       -8.2453448426  W2        2208            0.0000000000
      6623      2208  TIP3      H1             26.3362513709       15.6325105524       -7.6783748426  W2        2208            0.0000000000
      6624      2208  TIP3      H2             27.5451113709       16.0432205524       -8.4919148426  W2        2208            0.0000000000
      6625      2209  TIP3      OH2            32.8383113709        9.3226905524       -6.0343748426  W2        2209            0.0000000000
      6626      2209  TIP3      H1             33.6505713709        9.8270105524       -5.9882048426  W2        2209            0.0000000000
      6627      2209  TIP3      H2             32.5936113709        9.1776605524       -5.1204148426  W2        2209            0.0000000000
      6628      2210  TIP3      OH2            30.6452413709       20.7690105524       -8.0247748426  W2        2210            0.0000000000
      6629      2210  TIP3      H1             30.8061113709       21.5687605524       -8.5255148426  W2        2210            0.0000000000
      6630      2210  TIP3      H2             30.4480213709       21.0756105524       -7.1397148426  W2        2210            0.0000000000
      6631      2211  TIP3      OH2            29.3796813709        7.4669305524       -8.4090148426  W2        2211            0.0000000000
      6632      2211  TIP3      H1             29.2961613709        8.3552405524       -8.0623748426  W2        2211            0.0000000000
      6633      2211  TIP3      H2             30.2697113709        7.2016005524       -8.1773348426  W2        2211            0.0000000000
      6634      2212  TIP3      OH2            27.6382113709       17.8941505524       -9.3485648426  W2        2212            0.0000000000
      6635      2212  TIP3      H1             28.2303613709       18.5936305524       -9.0723248426  W2        2212            0.0000000000
      6636      2212  TIP3      H2             28.0975113709       17.4611005524      -10.0681048426  W2        2212            0.0000000000
      6637      2213  TIP3      OH2            25.9541313709       10.5584505524      -10.2326248426  W2        2213            0.0000000000
      6638      2213  TIP3      H1             25.9093913709       11.4977605524      -10.0539248426  W2        2213            0.0000000000
      6639      2213  TIP3      H2             25.0664513709       10.3229405524      -10.5024148426  W2        2213            0.0000000000
      6640      2214  TIP3      OH2            26.7623313709        5.3401105524       -1.5595248426  W2        2214            0.0000000000
      6641      2214  TIP3      H1             26.5333113709        5.3993605524       -2.4870248426  W2        2214            0.0000000000
      6642      2214  TIP3      H2             26.3196713709        4.5486605524       -1.2531148426  W2        2214            0.0000000000
      6643      2215  TIP3      OH2            25.6926613709       19.2808205524       -5.3989448426  W2        2215            0.0000000000
      6644      2215  TIP3      H1             24.8605213709       19.7530905524       -5.3718048426  W2        2215            0.0000000000
      6645      2215  TIP3      H2             26.2384913709       19.7905805524       -5.9976348426  W2        2215            0.0000000000
      6646      2216  TIP3      OH2            24.9810313709       21.8931905524        5.9308551574  W2        2216            0.0000000000
      6647      2216  TIP3      H1             25.5212513709       21.6765905524        6.6907751574  W2        2216            0.0000000000
      6648      2216  TIP3      H2             24.4998313709       21.0877905524        5.7411051574  W2        2216            0.0000000000
      6649      2217  TIP3      OH2            29.5783713709       20.8126305524        7.5512751574  W2        2217            0.0000000000
      6650      2217  TIP3      H1             30.3460913709       20.3537105524        7.8921951574  W2        2217            0.0000000000
      6651      2217  TIP3      H2             29.5569913709       20.5866105524        6.6213951574  W2        2217            0.0000000000
      6652      2218  TIP3      OH2            24.8879813709       15.7036005524        6.8852851574  W2        2218            0.0000000000
      6653      2218  TIP3      H1             25.0320313709       14.8016705524        6.5989551574  W2        2218            0.0000000000
      6654      2218  TIP3      H2             24.1157213709       15.9898105524        6.3975151574  W2        2218            0.0000000000
      6655      2219  TIP3      OH2            29.2293513709       16.0471705524      -10.9822548426  W2        2219            0.0000000000
      6656      2219  TIP3      H1             29.2937613709       15.2531305524      -10.4516148426  W2        2219            0.0000000000
      6657      2219  TIP3      H2             29.8822713709       15.9284505524      -11.6720548426  W2        2219            0.0000000000
      6658      2220  TIP3      OH2            31.5435913709       15.6734105524        6.3179251574  W2        2220            0.0000000000
      6659      2220  TIP3      H1             31.2149713709       15.9442205524        5.4606651574  W2        2220            0.0000000000
      6660      2220  TIP3      H2             31.6954113709       14.7323905524        6.2304251574  W2        2220            0.0000000000
      6661      2221  TIP3      OH2            25.7206313709       12.9039305524        6.3052151574  W2        2221            0.0000000000
      6662      2221  TIP3      H1             26.1287513709       12.0465905524        6.1842751574  W2        2221            0.0000000000
      6663      2221  TIP3      H2             25.4603913709       12.9180605524        7.2262451574  W2        2221            0.0000000000
      6664      2222  TIP3      OH2            30.3787313709       14.0197905524       -8.6764548426  W2        2222            0.0000000000
      6665      2222  TIP3      H1             29.9189313709       13.5356205524       -7.9906048426  W2        2222            0.0000000000
      6666      2222  TIP3      H2             30.6336013709       13.3513305524       -9.3124048426  W2        2222            0.0000000000
      6667      2223  TIP3      OH2            29.6676613709       11.9125005524        3.6795051574  W2        2223            0.0000000000
      6668      2223  TIP3      H1             29.0492713709       12.5871605524        3.9599751574  W2        2223            0.0000000000
      6669      2223  TIP3      H2             30.0117813709       12.2338905524        2.8461251574  W2        2223            0.0000000000
      6670      2224  TIP3      OH2            31.4497713709       12.2629705524      -10.4141348426  W2        2224            0.0000000000
      6671      2224  TIP3      H1             31.2692713709       12.1080905524      -11.3413048426  W2        2224            0.0000000000
      6672      2224  TIP3      H2             32.3998213709       12.3708405524      -10.3693448426  W2        2224            0.0000000000
      6673      2225  TIP3      OH2            30.0070313709        9.2675805524        4.7618151574  W2        2225            0.0000000000
      6674      2225  TIP3      H1             30.1571213709        8.5387105524        4.1597851574  W2        2225            0.0000000000
      6675      2225  TIP3      H2             30.0092713709       10.0447505524        4.2030351574  W2        2225            0.0000000000
      6676      2226  TIP3      OH2            30.4196013709        7.6371605524        2.2545551574  W2        2226            0.0000000000
      6677      2226  TIP3      H1             30.9553513709        8.0888305524        1.6024851574  W2        2226            0.0000000000
      6678      2226  TIP3      H2             29.5675613709        7.5291405524        1.8319651574  W2        2226            0.0000000000
      6679      2227  TIP3      OH2            32.0014413709       13.0767805524        2.4940751574  W2        2227            0.0000000000
      6680      2227  TIP3      H1             32.7519213709       12.9205305524        1.9208551574  W2        2227            0.0000000000
      6681      2227  TIP3      H2             31.6622713709       13.9284405524        2.2186251574  W2        2227            0.0000000000
      6682      2228  TIP3      OH2            28.4856613709       10.4659305524        6.6733751574  W2        2228            0.0000000000
      6683      2228  TIP3      H1             27.7185613709        9.9334105524        6.4631351574  W2        2228            0.0000000000
      6684      2228  TIP3      H2             29.1645613709       10.1559705524        6.0740051574  W2        2228            0.0000000000
      6685      2229  TIP3      OH2            31.2251513709        5.0937305524        2.6859151574  W2        2229            0.0000000000
      6686      2229  TIP3      H1             31.1271113709        6.0400505524        2.5805351574  W2        2229            0.0000000000
      6687      2229  TIP3      H2             30.4827713709        4.7211105524        2.2102651574  W2        2229            0.0000000000
      6688      2230  TIP3      OH2            32.4892013709        9.4152705524        6.2497551574  W2        2230            0.0000000000
      6689      2230  TIP3      H1             32.2537413709        9.1959405524        7.1512451574  W2        2230            0.0000000000
      6690      2230  TIP3      H2             31.7058913709        9.2083905524        5.7400051574  W2        2230            0.0000000000
      6691      2231  TIP3      OH2            26.6659413709        8.3863105524        6.3778451574  W2        2231            0.0000000000
      6692      2231  TIP3      H1             26.8776813709        7.6799205524        5.7675951574  W2        2231            0.0000000000
      6693      2231  TIP3      H2             26.5546913709        7.9489105524        7.2219651574  W2        2231            0.0000000000
      6694      2232  TIP3      OH2            31.4469613709        4.3874705524        5.3571951574  W2        2232            0.0000000000
      6695      2232  TIP3      H1             32.1588013709        3.7476905524        5.3431051574  W2        2232            0.0000000000
      6696      2232  TIP3      H2             31.3460013709        4.6543005524        4.4435051574  W2        2232            0.0000000000
      6697      2233  TIP3      OH2            31.8007113709        6.0703105524        7.4108251574  W2        2233            0.0000000000
      6698      2233  TIP3      H1             31.6689313709        5.5946905524        6.5906751574  W2        2233            0.0000000000
      6699      2233  TIP3      H2             31.2014513709        6.8146705524        7.3555351574  W2        2233            0.0000000000
      6700      2234  TIP3      OH2            31.3469413709       22.9533405524       -9.4127748426  W2        2234            0.0000000000
      6701      2234  TIP3      H1             32.2800113709       23.1112105524       -9.2689348426  W2        2234            0.0000000000
      6702      2234  TIP3      H2             31.0828213709       23.6286405524      -10.0376248426  W2        2234            0.0000000000
      6703      2235  TIP3      OH2            24.9154313709       17.5897205524       -9.9299648426  W2        2235            0.0000000000
      6704      2235  TIP3      H1             25.8293513709       17.6686105524       -9.6565748426  W2        2235            0.0000000000
      6705      2235  TIP3      H2             24.9227413709       16.9026805524      -10.5964048426  W2        2235            0.0000000000
      6706      2236  TIP3      OH2            23.5644913709       22.9825705524       -4.8525748426  W2        2236            0.0000000000
      6707      2236  TIP3      H1             22.9172013709       22.5207405524       -5.3854548426  W2        2236            0.0000000000
      6708      2236  TIP3      H2             23.9189513709       22.3109005524       -4.2699548426  W2        2236            0.0000000000
      6709      2237  TIP3      OH2            24.4344113709       21.0632705524       -3.0479548426  W2        2237            0.0000000000
      6710      2237  TIP3      H1             24.1000913709       20.1830005524       -2.8759348426  W2        2237            0.0000000000
      6711      2237  TIP3      H2             24.6566513709       21.4087705524       -2.1833948426  W2        2237            0.0000000000
      6712      2238  TIP3      OH2            24.5143613709       14.1388105524       -0.5964648426  W2        2238            0.0000000000
      6713      2238  TIP3      H1             24.6986513709       14.0569805524       -1.5321748426  W2        2238            0.0000000000
      6714      2238  TIP3      H2             25.3636513709       14.0145105524       -0.1728248426  W2        2238            0.0000000000
      6715      2239  TIP3      OH2            24.1118413709        9.4093105524        5.5444151574  W2        2239            0.0000000000
      6716      2239  TIP3      H1             25.0313313709        9.2871405524        5.7807251574  W2        2239            0.0000000000
      6717      2239  TIP3      H2             23.6622913709        8.6592805524        5.9337651574  W2        2239            0.0000000000
      6718      2240  TIP3      OH2            25.3330913709        7.7214705524       -1.5642948426  W2        2240            0.0000000000
      6719      2240  TIP3      H1             25.7782513709        6.9297205524       -1.2623248426  W2        2240            0.0000000000
      6720      2240  TIP3      H2             25.7993913709        8.4379905524       -1.1337348426  W2        2240            0.0000000000
      6721      2241  TIP3      OH2            23.6371213709       10.7207705524       -0.4952748426  W2        2241            0.0000000000
      6722      2241  TIP3      H1             24.1291013709       10.4998205524       -1.2860748426  W2        2241            0.0000000000
      6723      2241  TIP3      H2             23.9992113709       11.5611105524       -0.2143248426  W2        2241            0.0000000000
      6724      2242  TIP3      OH2            23.9507713709        6.9786805524       -6.4410348426  W2        2242            0.0000000000
      6725      2242  TIP3      H1             23.0256113709        7.1873405524       -6.5704848426  W2        2242            0.0000000000
      6726      2242  TIP3      H2             24.4047613709        7.4627605524       -7.1308048426  W2        2242            0.0000000000
      6727      2243  TIP3      OH2            23.9143113709        5.7165805524        1.9032151574  W2        2243            0.0000000000
      6728      2243  TIP3      H1             23.2493613709        5.4706105524        2.5463051574  W2        2243            0.0000000000
      6729      2243  TIP3      H2             23.4714413709        6.3386205524        1.3260151574  W2        2243            0.0000000000
      6730      2244  TIP3      OH2            26.1062413709       18.8919905524        6.0477951574  W2        2244            0.0000000000
      6731      2244  TIP3      H1             25.2854913709       19.0666405524        5.5872651574  W2        2244            0.0000000000
      6732      2244  TIP3      H2             25.8540213709       18.8184605524        6.9682351574  W2        2244            0.0000000000
      6733      2245  TIP3      OH2            29.0605313709       19.8661105524        2.3061951574  W2        2245            0.0000000000
      6734      2245  TIP3      H1             28.6356413709       20.6759605524        2.0236551574  W2        2245            0.0000000000
      6735      2245  TIP3      H2             29.9648113709       19.9515205524        2.0041751574  W2        2245            0.0000000000
      6736      2246  TIP3      OH2            26.4622013709       23.1225005524        2.3537251574  W2        2246            0.0000000000
      6737      2246  TIP3      H1             25.7418413709       23.5626005524        1.9024951574  W2        2246            0.0000000000
      6738      2246  TIP3      H2             26.0966013709       22.8719705524        3.2021251574  W2        2246            0.0000000000
      6739      2247  TIP3      OH2            28.9294613709       22.7228905524        1.3834451574  W2        2247            0.0000000000
      6740      2247  TIP3      H1             28.0646813709       22.7947405524        1.7874551574  W2        2247            0.0000000000
      6741      2247  TIP3      H2             28.8743613709       23.2696205524        0.5996951574  W2        2247            0.0000000000
      6742      2248  TIP3      OH2            25.8770113709       21.7457505524       -0.7360948426  W2        2248            0.0000000000
      6743      2248  TIP3      H1             25.8586113709       21.3202605524        0.1211351574  W2        2248            0.0000000000
      6744      2248  TIP3      H2             26.6818013709       21.4272505524       -1.1448748426  W2        2248            0.0000000000
      6745      2249  TIP3      OH2            28.0183213709       20.4556205524       -2.0811048426  W2        2249            0.0000000000
      6746      2249  TIP3      H1             27.7993913709       19.5393605524       -1.9115048426  W2        2249            0.0000000000
      6747      2249  TIP3      H2             28.8425413709       20.5956605524       -1.6149648426  W2        2249            0.0000000000
      6748      2250  TIP3      OH2            30.5555713709       20.9255505524       -1.2323048426  W2        2250            0.0000000000
      6749      2250  TIP3      H1             30.7681413709       20.0374505524       -1.5192148426  W2        2250            0.0000000000
      6750      2250  TIP3      H2             30.6200813709       20.8913205524       -0.2779048426  W2        2250            0.0000000000
      6751      2251  TIP3      OH2            26.3906913709        5.2236405524       -4.2659848426  W2        2251            0.0000000000
      6752      2251  TIP3      H1             25.6136713709        4.9891305524       -4.7733948426  W2        2251            0.0000000000
      6753      2251  TIP3      H2             26.9210513709        4.4268505524       -4.2571848426  W2        2251            0.0000000000
      6754      2252  TIP3      OH2            25.2270313709        5.0214505524       -8.4623748426  W2        2252            0.0000000000
      6755      2252  TIP3      H1             25.6661013709        5.6325005524       -9.0540248426  W2        2252            0.0000000000
      6756      2252  TIP3      H2             24.5932713709        5.5598605524       -7.9883748426  W2        2252            0.0000000000
      6757      2253  TIP3      OH2            30.9699513709        5.1503505524       -4.4526748426  W2        2253            0.0000000000
      6758      2253  TIP3      H1             31.8442913709        5.5387805524       -4.4822448426  W2        2253            0.0000000000
      6759      2253  TIP3      H2             30.8340313709        4.9351305524       -3.5299548426  W2        2253            0.0000000000
      6760      2254  TIP3      OH2            25.1279813709       20.9696705524       -7.5648648426  W2        2254            0.0000000000
      6761      2254  TIP3      H1             24.4429713709       20.9315605524       -8.2323548426  W2        2254            0.0000000000
      6762      2254  TIP3      H2             25.1317013709       21.8824305524       -7.2766548426  W2        2254            0.0000000000
      6763      2255  TIP3      OH2            27.0879413709        6.9376005524      -10.0199648426  W2        2255            0.0000000000
      6764      2255  TIP3      H1             27.5792813709        6.3078405524      -10.5474148426  W2        2255            0.0000000000
      6765      2255  TIP3      H2             27.7115713709        7.2335405524       -9.3568448426  W2        2255            0.0000000000
      6766      2256  TIP3      OH2            32.1139513709        7.2307505524       -7.5629148426  W2        2256            0.0000000000
      6767      2256  TIP3      H1             32.2920813709        6.5840705524       -6.8800548426  W2        2256            0.0000000000
      6768      2256  TIP3      H2             32.0605713709        8.0645205524       -7.0958048426  W2        2256            0.0000000000
      6769      2257  TIP3      OH2            26.3484913709        5.7378305524        5.2516351574  W2        2257            0.0000000000
      6770      2257  TIP3      H1             25.9823113709        4.9720905524        5.6941051574  W2        2257            0.0000000000
      6771      2257  TIP3      H2             27.2613413709        5.7668505524        5.5381451574  W2        2257            0.0000000000
      6772      2258  TIP3      OH2            28.3215713709        5.0882705524        6.7873451574  W2        2258            0.0000000000
      6773      2258  TIP3      H1             29.2199313709        4.8142905524        6.6026851574  W2        2258            0.0000000000
      6774      2258  TIP3      H2             27.9348813709        4.3458705524        7.2516051574  W2        2258            0.0000000000
      6775      2259  TIP3      OH2            26.9461013709       21.8897505524      -10.5396548426  W2        2259            0.0000000000
      6776      2259  TIP3      H1             26.6785613709       22.1760405524       -9.6663448426  W2        2259            0.0000000000
      6777      2259  TIP3      H2             27.7173613709       21.3436705524      -10.3874048426  W2        2259            0.0000000000
      6778      2260  TIP3      OH2           -22.1659186291       32.4909405524       -0.8884148426  W2        2260            0.0000000000
      6779      2260  TIP3      H1            -22.2041686291       31.8445705524       -0.1834548426  W2        2260            0.0000000000
      6780      2260  TIP3      H2            -22.4882686291       32.0243805524       -1.6595448426  W2        2260            0.0000000000
      6781      2261  TIP3      OH2           -29.7974186291       32.1051505524        0.7045751574  W2        2261            0.0000000000
      6782      2261  TIP3      H1            -29.7562086291       31.4794805524        1.4278151574  W2        2261            0.0000000000
      6783      2261  TIP3      H2            -29.0946486291       32.7290105524        0.8866151574  W2        2261            0.0000000000
      6784      2262  TIP3      OH2           -32.2640586291       30.2153005524       -5.3676348426  W2        2262            0.0000000000
      6785      2262  TIP3      H1            -32.7117186291       31.0611705524       -5.3859848426  W2        2262            0.0000000000
      6786      2262  TIP3      H2            -32.8249386291       29.6357205524       -5.8831248426  W2        2262            0.0000000000
      6787      2263  TIP3      OH2           -31.5534486291       32.3772605524       -3.2418348426  W2        2263            0.0000000000
      6788      2263  TIP3      H1            -31.3400986291       31.6074205524       -2.7145348426  W2        2263            0.0000000000
      6789      2263  TIP3      H2            -30.8156886291       32.4669305524       -3.8450748426  W2        2263            0.0000000000
      6790      2264  TIP3      OH2           -15.1134986291       26.5246105524        0.3783051574  W2        2264            0.0000000000
      6791      2264  TIP3      H1            -15.0642786291       27.1347305524        1.1142151574  W2        2264            0.0000000000
      6792      2264  TIP3      H2            -14.6879886291       26.9857005524       -0.3445848426  W2        2264            0.0000000000
      6793      2265  TIP3      OH2           -20.6357786291       29.3173205524       -0.1548348426  W2        2265            0.0000000000
      6794      2265  TIP3      H1            -20.4931886291       28.3710205524       -0.1346748426  W2        2265            0.0000000000
      6795      2265  TIP3      H2            -20.7418786291       29.5243005524       -1.0833448426  W2        2265            0.0000000000
      6796      2266  TIP3      OH2           -27.4809486291       27.4189605524       -2.8823548426  W2        2266            0.0000000000
      6797      2266  TIP3      H1            -27.4378386291       28.2788105524       -3.3007248426  W2        2266            0.0000000000
      6798      2266  TIP3      H2            -27.9385386291       26.8664305524       -3.5160348426  W2        2266            0.0000000000
      6799      2267  TIP3      OH2           -19.7586786291       27.5495205524       -4.4815248426  W2        2267            0.0000000000
      6800      2267  TIP3      H1            -19.1122486291       27.2208405524       -3.8567648426  W2        2267            0.0000000000
      6801      2267  TIP3      H2            -19.2487386291       28.0674205524       -5.1043848426  W2        2267            0.0000000000
      6802      2268  TIP3      OH2           -30.8607986291       29.8155405524       -2.1202148426  W2        2268            0.0000000000
      6803      2268  TIP3      H1            -30.2071386291       29.2657105524       -1.6882048426  W2        2268            0.0000000000
      6804      2268  TIP3      H2            -30.8368686291       29.5414405524       -3.0370148426  W2        2268            0.0000000000
      6805      2269  TIP3      OH2           -25.7043486291       31.3656705524       -2.9050648426  W2        2269            0.0000000000
      6806      2269  TIP3      H1            -25.0882486291       30.8392105524       -2.3956648426  W2        2269            0.0000000000
      6807      2269  TIP3      H2            -26.2904686291       30.7255405524       -3.3087048426  W2        2269            0.0000000000
      6808      2270  TIP3      OH2           -14.7220386291       28.0025305524        2.6142851574  W2        2270            0.0000000000
      6809      2270  TIP3      H1            -15.4105786291       28.6606005524        2.5189451574  W2        2270            0.0000000000
      6810      2270  TIP3      H2            -14.7065786291       27.8053205524        3.5508251574  W2        2270            0.0000000000
      6811      2271  TIP3      OH2           -28.6707586291       26.3368005524        1.1917251574  W2        2271            0.0000000000
      6812      2271  TIP3      H1            -28.8895886291       26.8668605524        0.4253251574  W2        2271            0.0000000000
      6813      2271  TIP3      H2            -29.3386686291       26.5633505524        1.8388651574  W2        2271            0.0000000000
      6814      2272  TIP3      OH2           -17.9948386291       26.8404505524       -2.5009348426  W2        2272            0.0000000000
      6815      2272  TIP3      H1            -18.2100386291       26.0747905524       -1.9683348426  W2        2272            0.0000000000
      6816      2272  TIP3      H2            -17.3390986291       27.3129105524       -1.9880848426  W2        2272            0.0000000000
      6817      2273  TIP3      OH2           -29.0770286291       28.2289805524       -0.8560548426  W2        2273            0.0000000000
      6818      2273  TIP3      H1            -28.4633986291       28.8617405524       -0.4828148426  W2        2273            0.0000000000
      6819      2273  TIP3      H2            -28.5649586291       27.7564805524       -1.5123648426  W2        2273            0.0000000000
      6820      2274  TIP3      OH2           -17.6474286291       25.5555805524        1.1784151574  W2        2274            0.0000000000
      6821      2274  TIP3      H1            -18.3835086291       26.1662905524        1.1405451574  W2        2274            0.0000000000
      6822      2274  TIP3      H2            -16.9640286291       25.9704805524        0.6520551574  W2        2274            0.0000000000
      6823      2275  TIP3      OH2           -24.6442886291       23.6423105524       -1.3557848426  W2        2275            0.0000000000
      6824      2275  TIP3      H1            -24.7618686291       22.6939105524       -1.4099548426  W2        2275            0.0000000000
      6825      2275  TIP3      H2            -25.4992786291       23.9749205524       -1.0826748426  W2        2275            0.0000000000
      6826      2276  TIP3      OH2           -22.3777986291       32.4798705524       -6.8552048426  W2        2276            0.0000000000
      6827      2276  TIP3      H1            -23.0892486291       33.0148405524       -7.2071548426  W2        2276            0.0000000000
      6828      2276  TIP3      H2            -21.6868386291       32.5350805524       -7.5153148426  W2        2276            0.0000000000
      6829      2277  TIP3      OH2           -22.3238786291       30.9373005524       -9.8167048426  W2        2277            0.0000000000
      6830      2277  TIP3      H1            -21.6228886291       30.9599905524       -9.1653048426  W2        2277            0.0000000000
      6831      2277  TIP3      H2            -22.0215886291       30.3092705524      -10.4727748426  W2        2277            0.0000000000
      6832      2278  TIP3      OH2           -15.0084086291       31.8577205524        1.4382351574  W2        2278            0.0000000000
      6833      2278  TIP3      H1            -15.6609986291       32.5522805524        1.5273251574  W2        2278            0.0000000000
      6834      2278  TIP3      H2            -14.5433786291       32.0678105524        0.6283951574  W2        2278            0.0000000000
      6835      2279  TIP3      OH2           -18.9720286291       32.6892005524       -5.9036148426  W2        2279            0.0000000000
      6836      2279  TIP3      H1            -19.7039286291       32.9175705524       -5.3305548426  W2        2279            0.0000000000
      6837      2279  TIP3      H2            -18.5248086291       31.9754705524       -5.4488648426  W2        2279            0.0000000000
      6838      2280  TIP3      OH2           -19.0746786291       30.8634605524        3.1640851574  W2        2280            0.0000000000
      6839      2280  TIP3      H1            -18.9947686291       31.6269005524        3.7359351574  W2        2280            0.0000000000
      6840      2280  TIP3      H2            -19.6759086291       31.1427005524        2.4735951574  W2        2280            0.0000000000
      6841      2281  TIP3      OH2           -26.9601086291       32.0883805524       -0.3876148426  W2        2281            0.0000000000
      6842      2281  TIP3      H1            -26.3948586291       32.2098005524       -1.1504948426  W2        2281            0.0000000000
      6843      2281  TIP3      H2            -26.6412186291       32.7258805524        0.2512351574  W2        2281            0.0000000000
      6844      2282  TIP3      OH2           -20.1010786291       31.8514905524       -8.2184948426  W2        2282            0.0000000000
      6845      2282  TIP3      H1            -19.5215286291       32.0015205524       -7.4716048426  W2        2282            0.0000000000
      6846      2282  TIP3      H2            -19.6870786291       32.3222305524       -8.9418548426  W2        2282            0.0000000000
      6847      2283  TIP3      OH2           -29.1600486291       32.6857605524        3.5581451574  W2        2283            0.0000000000
      6848      2283  TIP3      H1            -29.0897286291       33.3364405524        4.2566451574  W2        2283            0.0000000000
      6849      2283  TIP3      H2            -30.0508286291       32.7885105524        3.2232351574  W2        2283            0.0000000000
      6850      2284  TIP3      OH2           -16.4022386291       23.6015305524       -8.4055248426  W2        2284            0.0000000000
      6851      2284  TIP3      H1            -17.3021686291       23.7404305524       -8.1104648426  W2        2284            0.0000000000
      6852      2284  TIP3      H2            -16.1503986291       24.4329905524       -8.8073548426  W2        2284            0.0000000000
      6853      2285  TIP3      OH2           -28.3363886291       32.3892505524       -6.4318348426  W2        2285            0.0000000000
      6854      2285  TIP3      H1            -28.6282586291       33.1574205524       -6.9227048426  W2        2285            0.0000000000
      6855      2285  TIP3      H2            -29.0108686291       31.7298705524       -6.5946948426  W2        2285            0.0000000000
      6856      2286  TIP3      OH2           -17.1432786291       29.6917705524        5.4297551574  W2        2286            0.0000000000
      6857      2286  TIP3      H1            -17.5505986291       30.1723305524        4.7090851574  W2        2286            0.0000000000
      6858      2286  TIP3      H2            -17.1027086291       28.7863705524        5.1218351574  W2        2286            0.0000000000
      6859      2287  TIP3      OH2           -27.3755286291       24.5457605524       -0.5781548426  W2        2287            0.0000000000
      6860      2287  TIP3      H1            -28.2371586291       24.4585805524       -0.9858648426  W2        2287            0.0000000000
      6861      2287  TIP3      H2            -27.3979586291       25.4017705524       -0.1503948426  W2        2287            0.0000000000
      6862      2288  TIP3      OH2           -22.7127486291       24.2678005524        2.7965451574  W2        2288            0.0000000000
      6863      2288  TIP3      H1            -22.2924386291       23.8525105524        3.5496051574  W2        2288            0.0000000000
      6864      2288  TIP3      H2            -23.6457886291       24.0891305524        2.9137451574  W2        2288            0.0000000000
      6865      2289  TIP3      OH2           -19.3862586291       28.0233205524        3.6499951574  W2        2289            0.0000000000
      6866      2289  TIP3      H1            -19.9003086291       27.8975405524        4.4475951574  W2        2289            0.0000000000
      6867      2289  TIP3      H2            -19.5417886291       28.9356305524        3.4056151574  W2        2289            0.0000000000
      6868      2290  TIP3      OH2           -18.6237686291       32.8843205524      -10.5887048426  W2        2290            0.0000000000
      6869      2290  TIP3      H1            -18.5816886291       32.6617105524      -11.5187048426  W2        2290            0.0000000000
      6870      2290  TIP3      H2            -17.7745586291       33.2830305524      -10.3987148426  W2        2290            0.0000000000
      6871      2291  TIP3      OH2           -23.0510186291       26.7601405524       -9.9183748426  W2        2291            0.0000000000
      6872      2291  TIP3      H1            -23.3045386291       26.7793005524       -8.9955648426  W2        2291            0.0000000000
      6873      2291  TIP3      H2            -23.3078086291       25.8886805524      -10.2197548426  W2        2291            0.0000000000
      6874      2292  TIP3      OH2           -27.2845186291       29.5112105524        0.5168651574  W2        2292            0.0000000000
      6875      2292  TIP3      H1            -27.9263086291       29.4709405524        1.2258751574  W2        2292            0.0000000000
      6876      2292  TIP3      H2            -27.2473186291       30.4376805524        0.2791651574  W2        2292            0.0000000000
      6877      2293  TIP3      OH2           -27.2876086291       29.7322205524       -4.5711348426  W2        2293            0.0000000000
      6878      2293  TIP3      H1            -28.1803186291       29.3918305524       -4.6297548426  W2        2293            0.0000000000
      6879      2293  TIP3      H2            -26.8369486291       29.3553105524       -5.3268148426  W2        2293            0.0000000000
      6880      2294  TIP3      OH2           -21.7520586291       30.1482505524       -5.7540548426  W2        2294            0.0000000000
      6881      2294  TIP3      H1            -22.1610286291       30.9631105524       -6.0455748426  W2        2294            0.0000000000
      6882      2294  TIP3      H2            -21.0314386291       30.0082605524       -6.3683448426  W2        2294            0.0000000000
      6883      2295  TIP3      OH2           -22.6498986291       30.3238905524        5.7340151574  W2        2295            0.0000000000
      6884      2295  TIP3      H1            -23.2125186291       29.6190505524        6.0547951574  W2        2295            0.0000000000
      6885      2295  TIP3      H2            -21.8235586291       30.2030805524        6.2017751574  W2        2295            0.0000000000
      6886      2296  TIP3      OH2           -20.7472886291       29.5942905524       -2.9400848426  W2        2296            0.0000000000
      6887      2296  TIP3      H1            -20.9428386291       30.1999705524       -3.6550248426  W2        2296            0.0000000000
      6888      2296  TIP3      H2            -20.5660286291       28.7608105524       -3.3744548426  W2        2296            0.0000000000
      6889      2297  TIP3      OH2           -29.5344686291       29.8315605524        2.3840651574  W2        2297            0.0000000000
      6890      2297  TIP3      H1            -29.5725286291       30.2317205524        3.2527751574  W2        2297            0.0000000000
      6891      2297  TIP3      H2            -30.0253586291       29.0148005524        2.4743551574  W2        2297            0.0000000000
      6892      2298  TIP3      OH2           -26.1687286291       27.2057905524      -10.8173348426  W2        2298            0.0000000000
      6893      2298  TIP3      H1            -26.5996586291       26.7608005524      -10.0875948426  W2        2298            0.0000000000
      6894      2298  TIP3      H2            -26.8868586291       27.5774205524      -11.3295848426  W2        2298            0.0000000000
      6895      2299  TIP3      OH2           -32.9263886291       26.9477405524       -3.7654648426  W2        2299            0.0000000000
      6896      2299  TIP3      H1            -32.2956186291       26.9189505524       -3.0460748426  W2        2299            0.0000000000
      6897      2299  TIP3      H2            -32.4769586291       26.5226105524       -4.4958748426  W2        2299            0.0000000000
      6898      2300  TIP3      OH2           -31.6521786291       27.6939405524       -8.3414248426  W2        2300            0.0000000000
      6899      2300  TIP3      H1            -31.1780086291       28.2849305524       -8.9263348426  W2        2300            0.0000000000
      6900      2300  TIP3      H2            -32.3695386291       28.2242305524       -7.9944148426  W2        2300            0.0000000000
      6901      2301  TIP3      OH2           -21.4833686291       31.2324205524        1.7311551574  W2        2301            0.0000000000
      6902      2301  TIP3      H1            -21.1598886291       30.6013905524        1.0882051574  W2        2301            0.0000000000
      6903      2301  TIP3      H2            -21.9234386291       30.6976405524        2.3918951574  W2        2301            0.0000000000
      6904      2302  TIP3      OH2           -24.7060786291       27.1599705524       -3.4847248426  W2        2302            0.0000000000
      6905      2302  TIP3      H1            -25.6169686291       27.2166505524       -3.1961248426  W2        2302            0.0000000000
      6906      2302  TIP3      H2            -24.2007886291       27.0995205524       -2.6740048426  W2        2302            0.0000000000
      6907      2303  TIP3      OH2           -29.8777386291       28.7886005524       -4.6579648426  W2        2303            0.0000000000
      6908      2303  TIP3      H1            -30.7669386291       28.8881505524       -4.9980048426  W2        2303            0.0000000000
      6909      2303  TIP3      H2            -29.5812486291       27.9469005524       -5.0041748426  W2        2303            0.0000000000
      6910      2304  TIP3      OH2           -26.2245586291       28.7888605524       -7.0015048426  W2        2304            0.0000000000
      6911      2304  TIP3      H1            -25.2930086291       28.9178605524       -6.8231948426  W2        2304            0.0000000000
      6912      2304  TIP3      H2            -26.4395286291       29.4582905524       -7.6510348426  W2        2304            0.0000000000
      6913      2305  TIP3      OH2           -20.3008886291       26.3946005524       -0.2205448426  W2        2305            0.0000000000
      6914      2305  TIP3      H1            -20.9777286291       26.5259105524        0.4434251574  W2        2305            0.0000000000
      6915      2305  TIP3      H2            -20.7863986291       26.2395505524       -1.0307748426  W2        2305            0.0000000000
      6916      2306  TIP3      OH2           -27.5505386291       29.9830805524       -9.4348948426  W2        2306            0.0000000000
      6917      2306  TIP3      H1            -28.0930286291       29.6034605524      -10.1261348426  W2        2306            0.0000000000
      6918      2306  TIP3      H2            -26.7170486291       30.1775505524       -9.8634848426  W2        2306            0.0000000000
      6919      2307  TIP3      OH2           -23.3861086291       29.9472705524       -1.5977648426  W2        2307            0.0000000000
      6920      2307  TIP3      H1            -22.8217686291       29.4009305524       -2.1448048426  W2        2307            0.0000000000
      6921      2307  TIP3      H2            -23.5337686291       29.4254605524       -0.8090048426  W2        2307            0.0000000000
      6922      2308  TIP3      OH2           -28.3841386291       26.0838805524       -5.1792848426  W2        2308            0.0000000000
      6923      2308  TIP3      H1            -28.7011886291       25.1814105524       -5.2147448426  W2        2308            0.0000000000
      6924      2308  TIP3      H2            -27.6027286291       26.0856205524       -5.7321248426  W2        2308            0.0000000000
      6925      2309  TIP3      OH2           -24.7595186291       28.3358805524        0.8162751574  W2        2309            0.0000000000
      6926      2309  TIP3      H1            -25.5949886291       28.7898305524        0.9265151574  W2        2309            0.0000000000
      6927      2309  TIP3      H2            -24.2354586291       28.6117305524        1.5682651574  W2        2309            0.0000000000
      6928      2310  TIP3      OH2           -20.3175786291       27.3626405524       -9.2998248426  W2        2310            0.0000000000
      6929      2310  TIP3      H1            -21.2561586291       27.4742005524       -9.4509448426  W2        2310            0.0000000000
      6930      2310  TIP3      H2            -20.0203686291       28.2193305524       -8.9932548426  W2        2310            0.0000000000
      6931      2311  TIP3      OH2           -19.5992286291       29.2299105524       -7.6390848426  W2        2311            0.0000000000
      6932      2311  TIP3      H1            -18.7073286291       29.0924105524       -7.3199648426  W2        2311            0.0000000000
      6933      2311  TIP3      H2            -19.5428686291       30.0205205524       -8.1757348426  W2        2311            0.0000000000
      6934      2312  TIP3      OH2           -32.0824586291       32.3043405524        3.5855551574  W2        2312            0.0000000000
      6935      2312  TIP3      H1            -31.8595986291       31.8863005524        4.4173051574  W2        2312            0.0000000000
      6936      2312  TIP3      H2            -32.6844486291       31.6918405524        3.1628351574  W2        2312            0.0000000000
      6937      2313  TIP3      OH2           -25.0659686291       31.8213305524        5.7985251574  W2        2313            0.0000000000
      6938      2313  TIP3      H1            -25.3618886291       31.6556305524        4.9034351574  W2        2313            0.0000000000
      6939      2313  TIP3      H2            -24.1344486291       31.6013605524        5.7879151574  W2        2313            0.0000000000
      6940      2314  TIP3      OH2           -14.7143586291       29.4393205524       -7.9444148426  W2        2314            0.0000000000
      6941      2314  TIP3      H1            -15.2687286291       29.0431205524       -8.6166648426  W2        2314            0.0000000000
      6942      2314  TIP3      H2            -14.6139986291       30.3498405524       -8.2220848426  W2        2314            0.0000000000
      6943      2315  TIP3      OH2           -30.9607186291       32.2238805524       -9.7379048426  W2        2315            0.0000000000
      6944      2315  TIP3      H1            -30.3447286291       32.8506005524       -9.3584248426  W2        2315            0.0000000000
      6945      2315  TIP3      H2            -31.8224586291       32.5398605524       -9.4662548426  W2        2315            0.0000000000
      6946      2316  TIP3      OH2           -30.4485086291       27.0576105524        3.1436951574  W2        2316            0.0000000000
      6947      2316  TIP3      H1            -31.3412786291       27.3961505524        3.0760951574  W2        2316            0.0000000000
      6948      2316  TIP3      H2            -30.5472286291       26.2022205524        3.5617751574  W2        2316            0.0000000000
      6949      2317  TIP3      OH2           -21.7141686291       26.7986405524        2.0335551574  W2        2317            0.0000000000
      6950      2317  TIP3      H1            -21.0153786291       26.8725105524        2.6835251574  W2        2317            0.0000000000
      6951      2317  TIP3      H2            -22.0950286291       25.9341405524        2.1878451574  W2        2317            0.0000000000
      6952      2318  TIP3      OH2           -20.9296786291       26.4508105524       -6.8692148426  W2        2318            0.0000000000
      6953      2318  TIP3      H1            -20.7098486291       26.9223505524       -7.6726748426  W2        2318            0.0000000000
      6954      2318  TIP3      H2            -20.3712786291       26.8450705524       -6.1991548426  W2        2318            0.0000000000
      6955      2319  TIP3      OH2           -23.7296886291       28.1786905524       -6.0343748426  W2        2319            0.0000000000
      6956      2319  TIP3      H1            -22.9174286291       28.6830105524       -5.9882048426  W2        2319            0.0000000000
      6957      2319  TIP3      H2            -23.9743886291       28.0336605524       -5.1204148426  W2        2319            0.0000000000
      6958      2320  TIP3      OH2           -23.1940486291       29.1649605524        3.1502851574  W2        2320            0.0000000000
      6959      2320  TIP3      H1            -23.0750186291       29.7385005524        3.9073251574  W2        2320            0.0000000000
      6960      2320  TIP3      H2            -22.5385886291       28.4769005524        3.2650651574  W2        2320            0.0000000000
      6961      2321  TIP3      OH2           -22.8460186291       25.2599905524       -5.0962648426  W2        2321            0.0000000000
      6962      2321  TIP3      H1            -23.1926686291       25.8770505524       -4.4518348426  W2        2321            0.0000000000
      6963      2321  TIP3      H2            -22.1873286291       25.7605605524       -5.5777148426  W2        2321            0.0000000000
      6964      2322  TIP3      OH2           -27.1883186291       26.3229305524       -8.4090148426  W2        2322            0.0000000000
      6965      2322  TIP3      H1            -27.2718386291       27.2112405524       -8.0623748426  W2        2322            0.0000000000
      6966      2322  TIP3      H2            -26.2982886291       26.0576005524       -8.1773348426  W2        2322            0.0000000000
      6967      2323  TIP3      OH2           -16.9894686291       27.0719905524        3.9852551574  W2        2323            0.0000000000
      6968      2323  TIP3      H1            -17.9058886291       27.3341605524        3.8976251574  W2        2323            0.0000000000
      6969      2323  TIP3      H2            -16.6539686291       27.0688905524        3.0887851574  W2        2323            0.0000000000
      6970      2324  TIP3      OH2           -18.3873686291       30.8220905524       -1.9190148426  W2        2324            0.0000000000
      6971      2324  TIP3      H1            -19.1849286291       30.4071105524       -2.2475148426  W2        2324            0.0000000000
      6972      2324  TIP3      H2            -17.9422586291       30.1314605524       -1.4279648426  W2        2324            0.0000000000
      6973      2325  TIP3      OH2           -30.6138686291       29.4144505524      -10.2326248426  W2        2325            0.0000000000
      6974      2325  TIP3      H1            -30.6586086291       30.3537605524      -10.0539248426  W2        2325            0.0000000000
      6975      2325  TIP3      H2            -31.5015486291       29.1789405524      -10.5024148426  W2        2325            0.0000000000
      6976      2326  TIP3      OH2           -29.8056686291       24.1961105524       -1.5595248426  W2        2326            0.0000000000
      6977      2326  TIP3      H1            -30.0346886291       24.2553605524       -2.4870248426  W2        2326            0.0000000000
      6978      2326  TIP3      H2            -30.2483286291       23.4046605524       -1.2531148426  W2        2326            0.0000000000
      6979      2327  TIP3      OH2           -30.8473686291       31.7599305524        6.3052151574  W2        2327            0.0000000000
      6980      2327  TIP3      H1            -30.4392486291       30.9025905524        6.1842751574  W2        2327            0.0000000000
      6981      2327  TIP3      H2            -31.1076086291       31.7740605524        7.2262451574  W2        2327            0.0000000000
      6982      2328  TIP3      OH2           -26.1892686291       32.8757905524       -8.6764548426  W2        2328            0.0000000000
      6983      2328  TIP3      H1            -26.6490686291       32.3916205524       -7.9906048426  W2        2328            0.0000000000
      6984      2328  TIP3      H2            -25.9343986291       32.2073305524       -9.3124048426  W2        2328            0.0000000000
      6985      2329  TIP3      OH2           -26.9003386291       30.7685005524        3.6795051574  W2        2329            0.0000000000
      6986      2329  TIP3      H1            -27.5187286291       31.4431605524        3.9599751574  W2        2329            0.0000000000
      6987      2329  TIP3      H2            -26.5562186291       31.0898905524        2.8461251574  W2        2329            0.0000000000
      6988      2330  TIP3      OH2           -25.1182286291       31.1189705524      -10.4141348426  W2        2330            0.0000000000
      6989      2330  TIP3      H1            -25.2987286291       30.9640905524      -11.3413048426  W2        2330            0.0000000000
      6990      2330  TIP3      H2            -24.1681786291       31.2268405524      -10.3693448426  W2        2330            0.0000000000
      6991      2331  TIP3      OH2           -26.5609686291       28.1235805524        4.7618151574  W2        2331            0.0000000000
      6992      2331  TIP3      H1            -26.4108786291       27.3947105524        4.1597851574  W2        2331            0.0000000000
      6993      2331  TIP3      H2            -26.5587286291       28.9007505524        4.2030351574  W2        2331            0.0000000000
      6994      2332  TIP3      OH2           -26.1483986291       26.4931605524        2.2545551574  W2        2332            0.0000000000
      6995      2332  TIP3      H1            -25.6126486291       26.9448305524        1.6024851574  W2        2332            0.0000000000
      6996      2332  TIP3      H2            -27.0004386291       26.3851405524        1.8319651574  W2        2332            0.0000000000
      6997      2333  TIP3      OH2           -24.5665586291       31.9327805524        2.4940751574  W2        2333            0.0000000000
      6998      2333  TIP3      H1            -23.8160786291       31.7765305524        1.9208551574  W2        2333            0.0000000000
      6999      2333  TIP3      H2            -24.9057286291       32.7844405524        2.2186251574  W2        2333            0.0000000000
      7000      2334  TIP3      OH2           -20.1509386291       29.7479605524        7.5226051574  W2        2334            0.0000000000
      7001      2334  TIP3      H1            -19.9588086291       28.8169005524        7.4110551574  W2        2334            0.0000000000
      7002      2334  TIP3      H2            -19.2933086291       30.1729105524        7.5121451574  W2        2334            0.0000000000
      7003      2335  TIP3      OH2           -18.8342186291       32.5364805524        5.5998751574  W2        2335            0.0000000000
      7004      2335  TIP3      H1            -19.1157186291       33.2459405524        5.0222551574  W2        2335            0.0000000000
      7005      2335  TIP3      H2            -17.8917886291       32.4637805524        5.4489951574  W2        2335            0.0000000000
      7006      2336  TIP3      OH2           -28.0823386291       29.3219305524        6.6733751574  W2        2336            0.0000000000
      7007      2336  TIP3      H1            -28.8494386291       28.7894105524        6.4631351574  W2        2336            0.0000000000
      7008      2336  TIP3      H2            -27.4034386291       29.0119705524        6.0740051574  W2        2336            0.0000000000
      7009      2337  TIP3      OH2           -25.3428486291       23.9497305524        2.6859151574  W2        2337            0.0000000000
      7010      2337  TIP3      H1            -25.4408886291       24.8960505524        2.5805351574  W2        2337            0.0000000000
      7011      2337  TIP3      H2            -26.0852286291       23.5771105524        2.2102651574  W2        2337            0.0000000000
      7012      2338  TIP3      OH2           -24.0787986291       28.2712705524        6.2497551574  W2        2338            0.0000000000
      7013      2338  TIP3      H1            -24.3142586291       28.0519405524        7.1512451574  W2        2338            0.0000000000
      7014      2338  TIP3      H2            -24.8621086291       28.0643905524        5.7400051574  W2        2338            0.0000000000
      7015      2339  TIP3      OH2           -21.3631386291       27.3986205524        5.3251051574  W2        2339            0.0000000000
      7016      2339  TIP3      H1            -22.3105986291       27.4305905524        5.4574351574  W2        2339            0.0000000000
      7017      2339  TIP3      H2            -21.0504686291       26.7733305524        5.9789251574  W2        2339            0.0000000000
      7018      2340  TIP3      OH2           -19.7289886291       26.0327305524        7.3302951574  W2        2340            0.0000000000
      7019      2340  TIP3      H1            -19.8258086291       25.0804605524        7.3244851574  W2        2340            0.0000000000
      7020      2340  TIP3      H2            -20.0506786291       26.3014105524        8.1908451574  W2        2340            0.0000000000
      7021      2341  TIP3      OH2           -29.9020586291       27.2423105524        6.3778451574  W2        2341            0.0000000000
      7022      2341  TIP3      H1            -29.6903186291       26.5359205524        5.7675951574  W2        2341            0.0000000000
      7023      2341  TIP3      H2            -30.0133086291       26.8049105524        7.2219651574  W2        2341            0.0000000000
      7024      2342  TIP3      OH2           -25.1210386291       23.2434705524        5.3571951574  W2        2342            0.0000000000
      7025      2342  TIP3      H1            -24.4091986291       22.6036905524        5.3431051574  W2        2342            0.0000000000
      7026      2342  TIP3      H2            -25.2219986291       23.5103005524        4.4435051574  W2        2342            0.0000000000
      7027      2343  TIP3      OH2           -24.7672886291       24.9263105524        7.4108251574  W2        2343            0.0000000000
      7028      2343  TIP3      H1            -24.8990686291       24.4506905524        6.5906751574  W2        2343            0.0000000000
      7029      2343  TIP3      H2            -25.3665486291       25.6706705524        7.3555351574  W2        2343            0.0000000000
      7030      2344  TIP3      OH2           -14.8755586291       32.3959405524       -5.1697148426  W2        2344            0.0000000000
      7031      2344  TIP3      H1            -15.6020986291       31.9162005524       -4.7719548426  W2        2344            0.0000000000
      7032      2344  TIP3      H2            -14.2942286291       32.6014105524       -4.4375548426  W2        2344            0.0000000000
      7033      2345  TIP3      OH2           -14.6072486291       32.2967905524       -8.7785848426  W2        2345            0.0000000000
      7034      2345  TIP3      H1            -15.1291386291       32.6532005524       -9.4974948426  W2        2345            0.0000000000
      7035      2345  TIP3      H2            -14.6403286291       32.9715705524       -8.1004948426  W2        2345            0.0000000000
      7036      2346  TIP3      OH2           -16.2583486291       29.5363505524      -10.2278748426  W2        2346            0.0000000000
      7037      2346  TIP3      H1            -16.1619086291       30.2030505524      -10.9079048426  W2        2346            0.0000000000
      7038      2346  TIP3      H2            -16.3983886291       28.7209805524      -10.7093248426  W2        2346            0.0000000000
      7039      2347  TIP3      OH2           -17.0888786291       30.9165905524       -4.6068448426  W2        2347            0.0000000000
      7040      2347  TIP3      H1            -17.2389986291       29.9714505524       -4.6270648426  W2        2347            0.0000000000
      7041      2347  TIP3      H2            -17.4424286291       31.1977305524       -3.7629348426  W2        2347            0.0000000000
      7042      2348  TIP3      OH2           -16.2325886291       32.8869205524        5.0319851574  W2        2348            0.0000000000
      7043      2348  TIP3      H1            -15.6498586291       32.1521505524        5.2237051574  W2        2348            0.0000000000
      7044      2348  TIP3      H2            -15.6686586291       33.6589505524        5.0785651574  W2        2348            0.0000000000
      7045      2349  TIP3      OH2           -14.7358786291       30.7895005524        5.7165251574  W2        2349            0.0000000000
      7046      2349  TIP3      H1            -15.5992086291       30.4107105524        5.5509951574  W2        2349            0.0000000000
      7047      2349  TIP3      H2            -14.1315086291       30.0509805524        5.6421051574  W2        2349            0.0000000000
      7048      2350  TIP3      OH2           -17.0109686291       26.9443305524      -11.1103248426  W2        2350            0.0000000000
      7049      2350  TIP3      H1            -16.4003886291       26.5730105524      -10.4735048426  W2        2350            0.0000000000
      7050      2350  TIP3      H2            -17.8478186291       26.5230205524      -10.9143248426  W2        2350            0.0000000000
      7051      2351  TIP3      OH2           -17.3783986291       28.4991705524       -6.1443348426  W2        2351            0.0000000000
      7052      2351  TIP3      H1            -17.0986886291       27.5922105524       -6.0201648426  W2        2351            0.0000000000
      7053      2351  TIP3      H2            -16.6192286291       28.9333205524       -6.5334148426  W2        2351            0.0000000000
      7054      2352  TIP3      OH2           -16.7665686291       29.0809105524       -0.7084448426  W2        2352            0.0000000000
      7055      2352  TIP3      H1            -15.8337686291       29.2929005524       -0.7428448426  W2        2352            0.0000000000
      7056      2352  TIP3      H2            -17.0018186291       29.1821205524        0.2138551574  W2        2352            0.0000000000
      7057      2353  TIP3      OH2           -16.7373786291       29.8174405524        2.0674951574  W2        2353            0.0000000000
      7058      2353  TIP3      H1            -17.5802486291       30.0854805524        2.4334751574  W2        2353            0.0000000000
      7059      2353  TIP3      H2            -16.2949486291       30.6396305524        1.8566051574  W2        2353            0.0000000000
      7060      2354  TIP3      OH2           -32.4561586291       28.2653105524        5.5444151574  W2        2354            0.0000000000
      7061      2354  TIP3      H1            -31.5366686291       28.1431405524        5.7807251574  W2        2354            0.0000000000
      7062      2354  TIP3      H2            -32.9057086291       27.5152805524        5.9337651574  W2        2354            0.0000000000
      7063      2355  TIP3      OH2           -14.4542186291       23.7974605524        7.4209951574  W2        2355            0.0000000000
      7064      2355  TIP3      H1            -14.1045186291       23.1438105524        6.8154651574  W2        2355            0.0000000000
      7065      2355  TIP3      H2            -14.3072686291       24.6348705524        6.9812551574  W2        2355            0.0000000000
      7066      2356  TIP3      OH2           -16.7649186291       25.7621005524       -6.0961348426  W2        2356            0.0000000000
      7067      2356  TIP3      H1            -16.5824186291       25.3132505524       -5.2706348426  W2        2356            0.0000000000
      7068      2356  TIP3      H2            -17.3646286291       25.1775405524       -6.5596748426  W2        2356            0.0000000000
      7069      2357  TIP3      OH2           -31.2349086291       26.5774705524       -1.5642948426  W2        2357            0.0000000000
      7070      2357  TIP3      H1            -30.7897486291       25.7857205524       -1.2623248426  W2        2357            0.0000000000
      7071      2357  TIP3      H2            -30.7686086291       27.2939905524       -1.1337348426  W2        2357            0.0000000000
      7072      2358  TIP3      OH2           -32.9308786291       29.5767705524       -0.4952748426  W2        2358            0.0000000000
      7073      2358  TIP3      H1            -32.4388986291       29.3558205524       -1.2860748426  W2        2358            0.0000000000
      7074      2358  TIP3      H2            -32.5687886291       30.4171105524       -0.2143248426  W2        2358            0.0000000000
      7075      2359  TIP3      OH2           -14.9344986291       25.9069205524        5.7701251574  W2        2359            0.0000000000
      7076      2359  TIP3      H1            -15.8519286291       26.1776305524        5.7344751574  W2        2359            0.0000000000
      7077      2359  TIP3      H2            -14.8115586291       25.3717605524        4.9860951574  W2        2359            0.0000000000
      7078      2360  TIP3      OH2           -14.8982986291       25.8299105524       -9.5681048426  W2        2360            0.0000000000
      7079      2360  TIP3      H1            -14.4860386291       25.1084805524      -10.0433048426  W2        2360            0.0000000000
      7080      2360  TIP3      H2            -14.2166486291       26.4993705524       -9.5096748426  W2        2360            0.0000000000
      7081      2361  TIP3      OH2           -32.6172286291       25.8346805524       -6.4410348426  W2        2361            0.0000000000
      7082      2361  TIP3      H1            -33.5423886291       26.0433405524       -6.5704848426  W2        2361            0.0000000000
      7083      2361  TIP3      H2            -32.1632386291       26.3187605524       -7.1308048426  W2        2361            0.0000000000
      7084      2362  TIP3      OH2           -32.6536886291       24.5725805524        1.9032151574  W2        2362            0.0000000000
      7085      2362  TIP3      H1            -33.3186386291       24.3266105524        2.5463051574  W2        2362            0.0000000000
      7086      2362  TIP3      H2            -33.0965586291       25.1946205524        1.3260151574  W2        2362            0.0000000000
      7087      2363  TIP3      OH2           -15.9339086291       23.9965505524        3.5892051574  W2        2363            0.0000000000
      7088      2363  TIP3      H1            -16.7465586291       24.3215805524        3.2016751574  W2        2363            0.0000000000
      7089      2363  TIP3      H2            -15.7010586291       23.2364005524        3.0561151574  W2        2363            0.0000000000
      7090      2364  TIP3      OH2           -22.5040586291       25.4456105524       -2.0879748426  W2        2364            0.0000000000
      7091      2364  TIP3      H1            -23.1783786291       24.8161705524       -1.8323948426  W2        2364            0.0000000000
      7092      2364  TIP3      H2            -21.9401386291       24.9615005524       -2.6911848426  W2        2364            0.0000000000
      7093      2365  TIP3      OH2           -17.3613386291       23.5530105524       -1.9752648426  W2        2365            0.0000000000
      7094      2365  TIP3      H1            -16.7575786291       24.1005505524       -2.4771648426  W2        2365            0.0000000000
      7095      2365  TIP3      H2            -18.2311386291       23.8720505524       -2.2158548426  W2        2365            0.0000000000
      7096      2366  TIP3      OH2           -15.6342986291       24.6918805524       -3.6421748426  W2        2366            0.0000000000
      7097      2366  TIP3      H1            -15.0225486291       24.1774505524       -4.1688148426  W2        2366            0.0000000000
      7098      2366  TIP3      H2            -15.2519586291       25.5690905524       -3.6187348426  W2        2366            0.0000000000
      7099      2367  TIP3      OH2           -30.1773086291       24.0796405524       -4.2659848426  W2        2367            0.0000000000
      7100      2367  TIP3      H1            -30.9543286291       23.8451305524       -4.7733948426  W2        2367            0.0000000000
      7101      2367  TIP3      H2            -29.6469486291       23.2828505524       -4.2571848426  W2        2367            0.0000000000
      7102      2368  TIP3      OH2           -31.3409686291       23.8774505524       -8.4623748426  W2        2368            0.0000000000
      7103      2368  TIP3      H1            -30.9018986291       24.4885005524       -9.0540248426  W2        2368            0.0000000000
      7104      2368  TIP3      H2            -31.9747286291       24.4158605524       -7.9883748426  W2        2368            0.0000000000
      7105      2369  TIP3      OH2           -25.5980486291       24.0063505524       -4.4526748426  W2        2369            0.0000000000
      7106      2369  TIP3      H1            -24.7237086291       24.3947805524       -4.4822448426  W2        2369            0.0000000000
      7107      2369  TIP3      H2            -25.7339686291       23.7911305524       -3.5299548426  W2        2369            0.0000000000
      7108      2370  TIP3      OH2           -20.0412086291       24.0363305524       -2.8035048426  W2        2370            0.0000000000
      7109      2370  TIP3      H1            -19.9650486291       24.1314905524       -3.7529048426  W2        2370            0.0000000000
      7110      2370  TIP3      H2            -20.3162886291       23.1286205524       -2.6745948426  W2        2370            0.0000000000
      7111      2371  TIP3      OH2           -18.6879486291       24.0621105524       -7.1110048426  W2        2371            0.0000000000
      7112      2371  TIP3      H1            -19.3908386291       24.6770305524       -7.3208648426  W2        2371            0.0000000000
      7113      2371  TIP3      H2            -19.1328086291       23.2247805524       -6.9799148426  W2        2371            0.0000000000
      7114      2372  TIP3      OH2           -29.4800586291       25.7936005524      -10.0199648426  W2        2372            0.0000000000
      7115      2372  TIP3      H1            -28.9887186291       25.1638405524      -10.5474148426  W2        2372            0.0000000000
      7116      2372  TIP3      H2            -28.8564286291       26.0895405524       -9.3568448426  W2        2372            0.0000000000
      7117      2373  TIP3      OH2           -24.4540486291       26.0867505524       -7.5629148426  W2        2373            0.0000000000
      7118      2373  TIP3      H1            -24.2759186291       25.4400705524       -6.8800548426  W2        2373            0.0000000000
      7119      2373  TIP3      H2            -24.5074286291       26.9205205524       -7.0958048426  W2        2373            0.0000000000
      7120      2374  TIP3      OH2           -30.2195086291       24.5938305524        5.2516351574  W2        2374            0.0000000000
      7121      2374  TIP3      H1            -30.5856886291       23.8280905524        5.6941051574  W2        2374            0.0000000000
      7122      2374  TIP3      H2            -29.3066586291       24.6228505524        5.5381451574  W2        2374            0.0000000000
      7123      2375  TIP3      OH2           -28.2464286291       23.9442705524        6.7873451574  W2        2375            0.0000000000
      7124      2375  TIP3      H1            -27.3480686291       23.6702905524        6.6026851574  W2        2375            0.0000000000
      7125      2375  TIP3      H2            -28.6331186291       23.2018705524        7.2516051574  W2        2375            0.0000000000
      7126      2376  TIP3      OH2           -19.8251986291       23.2768005524        6.9696251574  W2        2376            0.0000000000
      7127      2376  TIP3      H1            -19.7484786291       22.8508705524        7.8233951574  W2        2376            0.0000000000
      7128      2376  TIP3      H2            -18.9315386291       23.2902705524        6.6269751574  W2        2376            0.0000000000
      7129      2377  TIP3      OH2            -3.3099186291       32.4909405524       -0.8884148426  W2        2377            0.0000000000
      7130      2377  TIP3      H1             -3.3481686291       31.8445705524       -0.1834548426  W2        2377            0.0000000000
      7131      2377  TIP3      H2             -3.6322686291       32.0243805524       -1.6595448426  W2        2377            0.0000000000
      7132      2378  TIP3      OH2           -10.9414186291       32.1051505524        0.7045751574  W2        2378            0.0000000000
      7133      2378  TIP3      H1            -10.9002086291       31.4794805524        1.4278151574  W2        2378            0.0000000000
      7134      2378  TIP3      H2            -10.2386486291       32.7290105524        0.8866151574  W2        2378            0.0000000000
      7135      2379  TIP3      OH2           -13.4080586291       30.2153005524       -5.3676348426  W2        2379            0.0000000000
      7136      2379  TIP3      H1            -13.8557186291       31.0611705524       -5.3859848426  W2        2379            0.0000000000
      7137      2379  TIP3      H2            -13.9689386291       29.6357205524       -5.8831248426  W2        2379            0.0000000000
      7138      2380  TIP3      OH2           -12.6974486291       32.3772605524       -3.2418348426  W2        2380            0.0000000000
      7139      2380  TIP3      H1            -12.4840986291       31.6074205524       -2.7145348426  W2        2380            0.0000000000
      7140      2380  TIP3      H2            -11.9596886291       32.4669305524       -3.8450748426  W2        2380            0.0000000000
      7141      2381  TIP3      OH2             3.7425013709       26.5246105524        0.3783051574  W2        2381            0.0000000000
      7142      2381  TIP3      H1              3.7917213709       27.1347305524        1.1142151574  W2        2381            0.0000000000
      7143      2381  TIP3      H2              4.1680113709       26.9857005524       -0.3445848426  W2        2381            0.0000000000
      7144      2382  TIP3      OH2            -1.7797786291       29.3173205524       -0.1548348426  W2        2382            0.0000000000
      7145      2382  TIP3      H1             -1.6371886291       28.3710205524       -0.1346748426  W2        2382            0.0000000000
      7146      2382  TIP3      H2             -1.8858786291       29.5243005524       -1.0833448426  W2        2382            0.0000000000
      7147      2383  TIP3      OH2            -8.6249486291       27.4189605524       -2.8823548426  W2        2383            0.0000000000
      7148      2383  TIP3      H1             -8.5818386291       28.2788105524       -3.3007248426  W2        2383            0.0000000000
      7149      2383  TIP3      H2             -9.0825386291       26.8664305524       -3.5160348426  W2        2383            0.0000000000
      7150      2384  TIP3      OH2            -0.9026786291       27.5495205524       -4.4815248426  W2        2384            0.0000000000
      7151      2384  TIP3      H1             -0.2562486291       27.2208405524       -3.8567648426  W2        2384            0.0000000000
      7152      2384  TIP3      H2             -0.3927386291       28.0674205524       -5.1043848426  W2        2384            0.0000000000
      7153      2385  TIP3      OH2           -12.0047986291       29.8155405524       -2.1202148426  W2        2385            0.0000000000
      7154      2385  TIP3      H1            -11.3511386291       29.2657105524       -1.6882048426  W2        2385            0.0000000000
      7155      2385  TIP3      H2            -11.9808686291       29.5414405524       -3.0370148426  W2        2385            0.0000000000
      7156      2386  TIP3      OH2            -6.8483486291       31.3656705524       -2.9050648426  W2        2386            0.0000000000
      7157      2386  TIP3      H1             -6.2322486291       30.8392105524       -2.3956648426  W2        2386            0.0000000000
      7158      2386  TIP3      H2             -7.4344686291       30.7255405524       -3.3087048426  W2        2386            0.0000000000
      7159      2387  TIP3      OH2             4.1339613709       28.0025305524        2.6142851574  W2        2387            0.0000000000
      7160      2387  TIP3      H1              3.4454213709       28.6606005524        2.5189451574  W2        2387            0.0000000000
      7161      2387  TIP3      H2              4.1494213709       27.8053205524        3.5508251574  W2        2387            0.0000000000
      7162      2388  TIP3      OH2            -9.8147586291       26.3368005524        1.1917251574  W2        2388            0.0000000000
      7163      2388  TIP3      H1            -10.0335886291       26.8668605524        0.4253251574  W2        2388            0.0000000000
      7164      2388  TIP3      H2            -10.4826686291       26.5633505524        1.8388651574  W2        2388            0.0000000000
      7165      2389  TIP3      OH2             0.8611613709       26.8404505524       -2.5009348426  W2        2389            0.0000000000
      7166      2389  TIP3      H1              0.6459613709       26.0747905524       -1.9683348426  W2        2389            0.0000000000
      7167      2389  TIP3      H2              1.5169013709       27.3129105524       -1.9880848426  W2        2389            0.0000000000
      7168      2390  TIP3      OH2           -10.2210286291       28.2289805524       -0.8560548426  W2        2390            0.0000000000
      7169      2390  TIP3      H1             -9.6073986291       28.8617405524       -0.4828148426  W2        2390            0.0000000000
      7170      2390  TIP3      H2             -9.7089586291       27.7564805524       -1.5123648426  W2        2390            0.0000000000
      7171      2391  TIP3      OH2             1.2085713709       25.5555805524        1.1784151574  W2        2391            0.0000000000
      7172      2391  TIP3      H1              0.4724913709       26.1662905524        1.1405451574  W2        2391            0.0000000000
      7173      2391  TIP3      H2              1.8919713709       25.9704805524        0.6520551574  W2        2391            0.0000000000
      7174      2392  TIP3      OH2            -5.7882886291       23.6423105524       -1.3557848426  W2        2392            0.0000000000
      7175      2392  TIP3      H1             -5.9058686291       22.6939105524       -1.4099548426  W2        2392            0.0000000000
      7176      2392  TIP3      H2             -6.6432786291       23.9749205524       -1.0826748426  W2        2392            0.0000000000
      7177      2393  TIP3      OH2            -3.5217986291       32.4798705524       -6.8552048426  W2        2393            0.0000000000
      7178      2393  TIP3      H1             -4.2332486291       33.0148405524       -7.2071548426  W2        2393            0.0000000000
      7179      2393  TIP3      H2             -2.8308386291       32.5350805524       -7.5153148426  W2        2393            0.0000000000
      7180      2394  TIP3      OH2            -3.4678786291       30.9373005524       -9.8167048426  W2        2394            0.0000000000
      7181      2394  TIP3      H1             -2.7668886291       30.9599905524       -9.1653048426  W2        2394            0.0000000000
      7182      2394  TIP3      H2             -3.1655886291       30.3092705524      -10.4727748426  W2        2394            0.0000000000
      7183      2395  TIP3      OH2             3.8475913709       31.8577205524        1.4382351574  W2        2395            0.0000000000
      7184      2395  TIP3      H1              3.1950013709       32.5522805524        1.5273251574  W2        2395            0.0000000000
      7185      2395  TIP3      H2              4.3126213709       32.0678105524        0.6283951574  W2        2395            0.0000000000
      7186      2396  TIP3      OH2            -0.1160286291       32.6892005524       -5.9036148426  W2        2396            0.0000000000
      7187      2396  TIP3      H1             -0.8479286291       32.9175705524       -5.3305548426  W2        2396            0.0000000000
      7188      2396  TIP3      H2              0.3311913709       31.9754705524       -5.4488648426  W2        2396            0.0000000000
      7189      2397  TIP3      OH2            -0.2186786291       30.8634605524        3.1640851574  W2        2397            0.0000000000
      7190      2397  TIP3      H1             -0.1387686291       31.6269005524        3.7359351574  W2        2397            0.0000000000
      7191      2397  TIP3      H2             -0.8199086291       31.1427005524        2.4735951574  W2        2397            0.0000000000
      7192      2398  TIP3      OH2            -8.1041086291       32.0883805524       -0.3876148426  W2        2398            0.0000000000
      7193      2398  TIP3      H1             -7.5388586291       32.2098005524       -1.1504948426  W2        2398            0.0000000000
      7194      2398  TIP3      H2             -7.7852186291       32.7258805524        0.2512351574  W2        2398            0.0000000000
      7195      2399  TIP3      OH2            -1.2450786291       31.8514905524       -8.2184948426  W2        2399            0.0000000000
      7196      2399  TIP3      H1             -0.6655286291       32.0015205524       -7.4716048426  W2        2399            0.0000000000
      7197      2399  TIP3      H2             -0.8310786291       32.3222305524       -8.9418548426  W2        2399            0.0000000000
      7198      2400  TIP3      OH2           -10.3040486291       32.6857605524        3.5581451574  W2        2400            0.0000000000
      7199      2400  TIP3      H1            -10.2337286291       33.3364405524        4.2566451574  W2        2400            0.0000000000
      7200      2400  TIP3      H2            -11.1948286291       32.7885105524        3.2232351574  W2        2400            0.0000000000
      7201      2401  TIP3      OH2             2.4537613709       23.6015305524       -8.4055248426  W2        2401            0.0000000000
      7202      2401  TIP3      H1              1.5538313709       23.7404305524       -8.1104648426  W2        2401            0.0000000000
      7203      2401  TIP3      H2              2.7056013709       24.4329905524       -8.8073548426  W2        2401            0.0000000000
      7204      2402  TIP3      OH2            -9.4803886291       32.3892505524       -6.4318348426  W2        2402            0.0000000000
      7205      2402  TIP3      H1             -9.7722586291       33.1574205524       -6.9227048426  W2        2402            0.0000000000
      7206      2402  TIP3      H2            -10.1548686291       31.7298705524       -6.5946948426  W2        2402            0.0000000000
      7207      2403  TIP3      OH2             1.7127213709       29.6917705524        5.4297551574  W2        2403            0.0000000000
      7208      2403  TIP3      H1              1.3054013709       30.1723305524        4.7090851574  W2        2403            0.0000000000
      7209      2403  TIP3      H2              1.7532913709       28.7863705524        5.1218351574  W2        2403            0.0000000000
      7210      2404  TIP3      OH2            -8.5195286291       24.5457605524       -0.5781548426  W2        2404            0.0000000000
      7211      2404  TIP3      H1             -9.3811586291       24.4585805524       -0.9858648426  W2        2404            0.0000000000
      7212      2404  TIP3      H2             -8.5419586291       25.4017705524       -0.1503948426  W2        2404            0.0000000000
      7213      2405  TIP3      OH2            -3.8567486291       24.2678005524        2.7965451574  W2        2405            0.0000000000
      7214      2405  TIP3      H1             -3.4364386291       23.8525105524        3.5496051574  W2        2405            0.0000000000
      7215      2405  TIP3      H2             -4.7897886291       24.0891305524        2.9137451574  W2        2405            0.0000000000
      7216      2406  TIP3      OH2            -0.5302586291       28.0233205524        3.6499951574  W2        2406            0.0000000000
      7217      2406  TIP3      H1             -1.0443086291       27.8975405524        4.4475951574  W2        2406            0.0000000000
      7218      2406  TIP3      H2             -0.6857886291       28.9356305524        3.4056151574  W2        2406            0.0000000000
      7219      2407  TIP3      OH2             0.2322313709       32.8843205524      -10.5887048426  W2        2407            0.0000000000
      7220      2407  TIP3      H1              0.2743113709       32.6617105524      -11.5187048426  W2        2407            0.0000000000
      7221      2407  TIP3      H2              1.0814413709       33.2830305524      -10.3987148426  W2        2407            0.0000000000
      7222      2408  TIP3      OH2            -4.1950186291       26.7601405524       -9.9183748426  W2        2408            0.0000000000
      7223      2408  TIP3      H1             -4.4485386291       26.7793005524       -8.9955648426  W2        2408            0.0000000000
      7224      2408  TIP3      H2             -4.4518086291       25.8886805524      -10.2197548426  W2        2408            0.0000000000
      7225      2409  TIP3      OH2            -8.4285186291       29.5112105524        0.5168651574  W2        2409            0.0000000000
      7226      2409  TIP3      H1             -9.0703086291       29.4709405524        1.2258751574  W2        2409            0.0000000000
      7227      2409  TIP3      H2             -8.3913186291       30.4376805524        0.2791651574  W2        2409            0.0000000000
      7228      2410  TIP3      OH2            -8.4316086291       29.7322205524       -4.5711348426  W2        2410            0.0000000000
      7229      2410  TIP3      H1             -9.3243186291       29.3918305524       -4.6297548426  W2        2410            0.0000000000
      7230      2410  TIP3      H2             -7.9809486291       29.3553105524       -5.3268148426  W2        2410            0.0000000000
      7231      2411  TIP3      OH2            -2.8960586291       30.1482505524       -5.7540548426  W2        2411            0.0000000000
      7232      2411  TIP3      H1             -3.3050286291       30.9631105524       -6.0455748426  W2        2411            0.0000000000
      7233      2411  TIP3      H2             -2.1754386291       30.0082605524       -6.3683448426  W2        2411            0.0000000000
      7234      2412  TIP3      OH2            -3.7938986291       30.3238905524        5.7340151574  W2        2412            0.0000000000
      7235      2412  TIP3      H1             -4.3565186291       29.6190505524        6.0547951574  W2        2412            0.0000000000
      7236      2412  TIP3      H2             -2.9675586291       30.2030805524        6.2017751574  W2        2412            0.0000000000
      7237      2413  TIP3      OH2            -1.8912886291       29.5942905524       -2.9400848426  W2        2413            0.0000000000
      7238      2413  TIP3      H1             -2.0868386291       30.1999705524       -3.6550248426  W2        2413            0.0000000000
      7239      2413  TIP3      H2             -1.7100286291       28.7608105524       -3.3744548426  W2        2413            0.0000000000
      7240      2414  TIP3      OH2           -10.6784686291       29.8315605524        2.3840651574  W2        2414            0.0000000000
      7241      2414  TIP3      H1            -10.7165286291       30.2317205524        3.2527751574  W2        2414            0.0000000000
      7242      2414  TIP3      H2            -11.1693586291       29.0148005524        2.4743551574  W2        2414            0.0000000000
      7243      2415  TIP3      OH2            -7.3127286291       27.2057905524      -10.8173348426  W2        2415            0.0000000000
      7244      2415  TIP3      H1             -7.7436586291       26.7608005524      -10.0875948426  W2        2415            0.0000000000
      7245      2415  TIP3      H2             -8.0308586291       27.5774205524      -11.3295848426  W2        2415            0.0000000000
      7246      2416  TIP3      OH2           -14.0703886291       26.9477405524       -3.7654648426  W2        2416            0.0000000000
      7247      2416  TIP3      H1            -13.4396186291       26.9189505524       -3.0460748426  W2        2416            0.0000000000
      7248      2416  TIP3      H2            -13.6209586291       26.5226105524       -4.4958748426  W2        2416            0.0000000000
      7249      2417  TIP3      OH2           -12.7961786291       27.6939405524       -8.3414248426  W2        2417            0.0000000000
      7250      2417  TIP3      H1            -12.3220086291       28.2849305524       -8.9263348426  W2        2417            0.0000000000
      7251      2417  TIP3      H2            -13.5135386291       28.2242305524       -7.9944148426  W2        2417            0.0000000000
      7252      2418  TIP3      OH2            -2.6273686291       31.2324205524        1.7311551574  W2        2418            0.0000000000
      7253      2418  TIP3      H1             -2.3038886291       30.6013905524        1.0882051574  W2        2418            0.0000000000
      7254      2418  TIP3      H2             -3.0674386291       30.6976405524        2.3918951574  W2        2418            0.0000000000
      7255      2419  TIP3      OH2            -5.8500786291       27.1599705524       -3.4847248426  W2        2419            0.0000000000
      7256      2419  TIP3      H1             -6.7609686291       27.2166505524       -3.1961248426  W2        2419            0.0000000000
      7257      2419  TIP3      H2             -5.3447886291       27.0995205524       -2.6740048426  W2        2419            0.0000000000
      7258      2420  TIP3      OH2           -11.0217386291       28.7886005524       -4.6579648426  W2        2420            0.0000000000
      7259      2420  TIP3      H1            -11.9109386291       28.8881505524       -4.9980048426  W2        2420            0.0000000000
      7260      2420  TIP3      H2            -10.7252486291       27.9469005524       -5.0041748426  W2        2420            0.0000000000
      7261      2421  TIP3      OH2            -7.3685586291       28.7888605524       -7.0015048426  W2        2421            0.0000000000
      7262      2421  TIP3      H1             -6.4370086291       28.9178605524       -6.8231948426  W2        2421            0.0000000000
      7263      2421  TIP3      H2             -7.5835286291       29.4582905524       -7.6510348426  W2        2421            0.0000000000
      7264      2422  TIP3      OH2            -1.4448886291       26.3946005524       -0.2205448426  W2        2422            0.0000000000
      7265      2422  TIP3      H1             -2.1217286291       26.5259105524        0.4434251574  W2        2422            0.0000000000
      7266      2422  TIP3      H2             -1.9303986291       26.2395505524       -1.0307748426  W2        2422            0.0000000000
      7267      2423  TIP3      OH2            -8.6945386291       29.9830805524       -9.4348948426  W2        2423            0.0000000000
      7268      2423  TIP3      H1             -9.2370286291       29.6034605524      -10.1261348426  W2        2423            0.0000000000
      7269      2423  TIP3      H2             -7.8610486291       30.1775505524       -9.8634848426  W2        2423            0.0000000000
      7270      2424  TIP3      OH2            -4.5301086291       29.9472705524       -1.5977648426  W2        2424            0.0000000000
      7271      2424  TIP3      H1             -3.9657686291       29.4009305524       -2.1448048426  W2        2424            0.0000000000
      7272      2424  TIP3      H2             -4.6777686291       29.4254605524       -0.8090048426  W2        2424            0.0000000000
      7273      2425  TIP3      OH2            -9.5281386291       26.0838805524       -5.1792848426  W2        2425            0.0000000000
      7274      2425  TIP3      H1             -9.8451886291       25.1814105524       -5.2147448426  W2        2425            0.0000000000
      7275      2425  TIP3      H2             -8.7467286291       26.0856205524       -5.7321248426  W2        2425            0.0000000000
      7276      2426  TIP3      OH2            -5.9035186291       28.3358805524        0.8162751574  W2        2426            0.0000000000
      7277      2426  TIP3      H1             -6.7389886291       28.7898305524        0.9265151574  W2        2426            0.0000000000
      7278      2426  TIP3      H2             -5.3794586291       28.6117305524        1.5682651574  W2        2426            0.0000000000
      7279      2427  TIP3      OH2            -1.4615786291       27.3626405524       -9.2998248426  W2        2427            0.0000000000
      7280      2427  TIP3      H1             -2.4001586291       27.4742005524       -9.4509448426  W2        2427            0.0000000000
      7281      2427  TIP3      H2             -1.1643686291       28.2193305524       -8.9932548426  W2        2427            0.0000000000
      7282      2428  TIP3      OH2            -0.7432286291       29.2299105524       -7.6390848426  W2        2428            0.0000000000
      7283      2428  TIP3      H1              0.1486713709       29.0924105524       -7.3199648426  W2        2428            0.0000000000
      7284      2428  TIP3      H2             -0.6868686291       30.0205205524       -8.1757348426  W2        2428            0.0000000000
      7285      2429  TIP3      OH2           -13.2264586291       32.3043405524        3.5855551574  W2        2429            0.0000000000
      7286      2429  TIP3      H1            -13.0035986291       31.8863005524        4.4173051574  W2        2429            0.0000000000
      7287      2429  TIP3      H2            -13.8284486291       31.6918405524        3.1628351574  W2        2429            0.0000000000
      7288      2430  TIP3      OH2            -6.2099686291       31.8213305524        5.7985251574  W2        2430            0.0000000000
      7289      2430  TIP3      H1             -6.5058886291       31.6556305524        4.9034351574  W2        2430            0.0000000000
      7290      2430  TIP3      H2             -5.2784486291       31.6013605524        5.7879151574  W2        2430            0.0000000000
      7291      2431  TIP3      OH2             4.1416413709       29.4393205524       -7.9444148426  W2        2431            0.0000000000
      7292      2431  TIP3      H1              3.5872713709       29.0431205524       -8.6166648426  W2        2431            0.0000000000
      7293      2431  TIP3      H2              4.2420013709       30.3498405524       -8.2220848426  W2        2431            0.0000000000
      7294      2432  TIP3      OH2           -12.1047186291       32.2238805524       -9.7379048426  W2        2432            0.0000000000
      7295      2432  TIP3      H1            -11.4887286291       32.8506005524       -9.3584248426  W2        2432            0.0000000000
      7296      2432  TIP3      H2            -12.9664586291       32.5398605524       -9.4662548426  W2        2432            0.0000000000
      7297      2433  TIP3      OH2           -11.5925086291       27.0576105524        3.1436951574  W2        2433            0.0000000000
      7298      2433  TIP3      H1            -12.4852786291       27.3961505524        3.0760951574  W2        2433            0.0000000000
      7299      2433  TIP3      H2            -11.6912286291       26.2022205524        3.5617751574  W2        2433            0.0000000000
      7300      2434  TIP3      OH2            -2.8581686291       26.7986405524        2.0335551574  W2        2434            0.0000000000
      7301      2434  TIP3      H1             -2.1593786291       26.8725105524        2.6835251574  W2        2434            0.0000000000
      7302      2434  TIP3      H2             -3.2390286291       25.9341405524        2.1878451574  W2        2434            0.0000000000
      7303      2435  TIP3      OH2            -2.0736786291       26.4508105524       -6.8692148426  W2        2435            0.0000000000
      7304      2435  TIP3      H1             -1.8538486291       26.9223505524       -7.6726748426  W2        2435            0.0000000000
      7305      2435  TIP3      H2             -1.5152786291       26.8450705524       -6.1991548426  W2        2435            0.0000000000
      7306      2436  TIP3      OH2            -4.8736886291       28.1786905524       -6.0343748426  W2        2436            0.0000000000
      7307      2436  TIP3      H1             -4.0614286291       28.6830105524       -5.9882048426  W2        2436            0.0000000000
      7308      2436  TIP3      H2             -5.1183886291       28.0336605524       -5.1204148426  W2        2436            0.0000000000
      7309      2437  TIP3      OH2            -4.3380486291       29.1649605524        3.1502851574  W2        2437            0.0000000000
      7310      2437  TIP3      H1             -4.2190186291       29.7385005524        3.9073251574  W2        2437            0.0000000000
      7311      2437  TIP3      H2             -3.6825886291       28.4769005524        3.2650651574  W2        2437            0.0000000000
      7312      2438  TIP3      OH2            -3.9900186291       25.2599905524       -5.0962648426  W2        2438            0.0000000000
      7313      2438  TIP3      H1             -4.3366686291       25.8770505524       -4.4518348426  W2        2438            0.0000000000
      7314      2438  TIP3      H2             -3.3313286291       25.7605605524       -5.5777148426  W2        2438            0.0000000000
      7315      2439  TIP3      OH2            -8.3323186291       26.3229305524       -8.4090148426  W2        2439            0.0000000000
      7316      2439  TIP3      H1             -8.4158386291       27.2112405524       -8.0623748426  W2        2439            0.0000000000
      7317      2439  TIP3      H2             -7.4422886291       26.0576005524       -8.1773348426  W2        2439            0.0000000000
      7318      2440  TIP3      OH2             1.8665313709       27.0719905524        3.9852551574  W2        2440            0.0000000000
      7319      2440  TIP3      H1              0.9501113709       27.3341605524        3.8976251574  W2        2440            0.0000000000
      7320      2440  TIP3      H2              2.2020313709       27.0688905524        3.0887851574  W2        2440            0.0000000000
      7321      2441  TIP3      OH2             0.4686313709       30.8220905524       -1.9190148426  W2        2441            0.0000000000
      7322      2441  TIP3      H1             -0.3289286291       30.4071105524       -2.2475148426  W2        2441            0.0000000000
      7323      2441  TIP3      H2              0.9137413709       30.1314605524       -1.4279648426  W2        2441            0.0000000000
      7324      2442  TIP3      OH2           -11.7578686291       29.4144505524      -10.2326248426  W2        2442            0.0000000000
      7325      2442  TIP3      H1            -11.8026086291       30.3537605524      -10.0539248426  W2        2442            0.0000000000
      7326      2442  TIP3      H2            -12.6455486291       29.1789405524      -10.5024148426  W2        2442            0.0000000000
      7327      2443  TIP3      OH2           -10.9496686291       24.1961105524       -1.5595248426  W2        2443            0.0000000000
      7328      2443  TIP3      H1            -11.1786886291       24.2553605524       -2.4870248426  W2        2443            0.0000000000
      7329      2443  TIP3      H2            -11.3923286291       23.4046605524       -1.2531148426  W2        2443            0.0000000000
      7330      2444  TIP3      OH2           -11.9913686291       31.7599305524        6.3052151574  W2        2444            0.0000000000
      7331      2444  TIP3      H1            -11.5832486291       30.9025905524        6.1842751574  W2        2444            0.0000000000
      7332      2444  TIP3      H2            -12.2516086291       31.7740605524        7.2262451574  W2        2444            0.0000000000
      7333      2445  TIP3      OH2            -7.3332686291       32.8757905524       -8.6764548426  W2        2445            0.0000000000
      7334      2445  TIP3      H1             -7.7930686291       32.3916205524       -7.9906048426  W2        2445            0.0000000000
      7335      2445  TIP3      H2             -7.0783986291       32.2073305524       -9.3124048426  W2        2445            0.0000000000
      7336      2446  TIP3      OH2            -8.0443386291       30.7685005524        3.6795051574  W2        2446            0.0000000000
      7337      2446  TIP3      H1             -8.6627286291       31.4431605524        3.9599751574  W2        2446            0.0000000000
      7338      2446  TIP3      H2             -7.7002186291       31.0898905524        2.8461251574  W2        2446            0.0000000000
      7339      2447  TIP3      OH2            -6.2622286291       31.1189705524      -10.4141348426  W2        2447            0.0000000000
      7340      2447  TIP3      H1             -6.4427286291       30.9640905524      -11.3413048426  W2        2447            0.0000000000
      7341      2447  TIP3      H2             -5.3121786291       31.2268405524      -10.3693448426  W2        2447            0.0000000000
      7342      2448  TIP3      OH2            -7.7049686291       28.1235805524        4.7618151574  W2        2448            0.0000000000
      7343      2448  TIP3      H1             -7.5548786291       27.3947105524        4.1597851574  W2        2448            0.0000000000
      7344      2448  TIP3      H2             -7.7027286291       28.9007505524        4.2030351574  W2        2448            0.0000000000
      7345      2449  TIP3      OH2            -7.2923986291       26.4931605524        2.2545551574  W2        2449            0.0000000000
      7346      2449  TIP3      H1             -6.7566486291       26.9448305524        1.6024851574  W2        2449            0.0000000000
      7347      2449  TIP3      H2             -8.1444386291       26.3851405524        1.8319651574  W2        2449            0.0000000000
      7348      2450  TIP3      OH2            -5.7105586291       31.9327805524        2.4940751574  W2        2450            0.0000000000
      7349      2450  TIP3      H1             -4.9600786291       31.7765305524        1.9208551574  W2        2450            0.0000000000
      7350      2450  TIP3      H2             -6.0497286291       32.7844405524        2.2186251574  W2        2450            0.0000000000
      7351      2451  TIP3      OH2            -1.2949386291       29.7479605524        7.5226051574  W2        2451            0.0000000000
      7352      2451  TIP3      H1             -1.1028086291       28.8169005524        7.4110551574  W2        2451            0.0000000000
      7353      2451  TIP3      H2             -0.4373086291       30.1729105524        7.5121451574  W2        2451            0.0000000000
      7354      2452  TIP3      OH2             0.0217813709       32.5364805524        5.5998751574  W2        2452            0.0000000000
      7355      2452  TIP3      H1             -0.2597186291       33.2459405524        5.0222551574  W2        2452            0.0000000000
      7356      2452  TIP3      H2              0.9642113709       32.4637805524        5.4489951574  W2        2452            0.0000000000
      7357      2453  TIP3      OH2            -9.2263386291       29.3219305524        6.6733751574  W2        2453            0.0000000000
      7358      2453  TIP3      H1             -9.9934386291       28.7894105524        6.4631351574  W2        2453            0.0000000000
      7359      2453  TIP3      H2             -8.5474386291       29.0119705524        6.0740051574  W2        2453            0.0000000000
      7360      2454  TIP3      OH2            -6.4868486291       23.9497305524        2.6859151574  W2        2454            0.0000000000
      7361      2454  TIP3      H1             -6.5848886291       24.8960505524        2.5805351574  W2        2454            0.0000000000
      7362      2454  TIP3      H2             -7.2292286291       23.5771105524        2.2102651574  W2        2454            0.0000000000
      7363      2455  TIP3      OH2            -5.2227986291       28.2712705524        6.2497551574  W2        2455            0.0000000000
      7364      2455  TIP3      H1             -5.4582586291       28.0519405524        7.1512451574  W2        2455            0.0000000000
      7365      2455  TIP3      H2             -6.0061086291       28.0643905524        5.7400051574  W2        2455            0.0000000000
      7366      2456  TIP3      OH2            -2.5071386291       27.3986205524        5.3251051574  W2        2456            0.0000000000
      7367      2456  TIP3      H1             -3.4545986291       27.4305905524        5.4574351574  W2        2456            0.0000000000
      7368      2456  TIP3      H2             -2.1944686291       26.7733305524        5.9789251574  W2        2456            0.0000000000
      7369      2457  TIP3      OH2            -0.8729886291       26.0327305524        7.3302951574  W2        2457            0.0000000000
      7370      2457  TIP3      H1             -0.9698086291       25.0804605524        7.3244851574  W2        2457            0.0000000000
      7371      2457  TIP3      H2             -1.1946786291       26.3014105524        8.1908451574  W2        2457            0.0000000000
      7372      2458  TIP3      OH2           -11.0460586291       27.2423105524        6.3778451574  W2        2458            0.0000000000
      7373      2458  TIP3      H1            -10.8343186291       26.5359205524        5.7675951574  W2        2458            0.0000000000
      7374      2458  TIP3      H2            -11.1573086291       26.8049105524        7.2219651574  W2        2458            0.0000000000
      7375      2459  TIP3      OH2            -6.2650386291       23.2434705524        5.3571951574  W2        2459            0.0000000000
      7376      2459  TIP3      H1             -5.5531986291       22.6036905524        5.3431051574  W2        2459            0.0000000000
      7377      2459  TIP3      H2             -6.3659986291       23.5103005524        4.4435051574  W2        2459            0.0000000000
      7378      2460  TIP3      OH2            -5.9112886291       24.9263105524        7.4108251574  W2        2460            0.0000000000
      7379      2460  TIP3      H1             -6.0430686291       24.4506905524        6.5906751574  W2        2460            0.0000000000
      7380      2460  TIP3      H2             -6.5105486291       25.6706705524        7.3555351574  W2        2460            0.0000000000
      7381      2461  TIP3      OH2             3.9804413709       32.3959405524       -5.1697148426  W2        2461            0.0000000000
      7382      2461  TIP3      H1              3.2539013709       31.9162005524       -4.7719548426  W2        2461            0.0000000000
      7383      2461  TIP3      H2              4.5617713709       32.6014105524       -4.4375548426  W2        2461            0.0000000000
      7384      2462  TIP3      OH2             4.2487513709       32.2967905524       -8.7785848426  W2        2462            0.0000000000
      7385      2462  TIP3      H1              3.7268613709       32.6532005524       -9.4974948426  W2        2462            0.0000000000
      7386      2462  TIP3      H2              4.2156713709       32.9715705524       -8.1004948426  W2        2462            0.0000000000
      7387      2463  TIP3      OH2             2.5976513709       29.5363505524      -10.2278748426  W2        2463            0.0000000000
      7388      2463  TIP3      H1              2.6940913709       30.2030505524      -10.9079048426  W2        2463            0.0000000000
      7389      2463  TIP3      H2              2.4576113709       28.7209805524      -10.7093248426  W2        2463            0.0000000000
      7390      2464  TIP3      OH2             1.7671213709       30.9165905524       -4.6068448426  W2        2464            0.0000000000
      7391      2464  TIP3      H1              1.6170013709       29.9714505524       -4.6270648426  W2        2464            0.0000000000
      7392      2464  TIP3      H2              1.4135713709       31.1977305524       -3.7629348426  W2        2464            0.0000000000
      7393      2465  TIP3      OH2             2.6234113709       32.8869205524        5.0319851574  W2        2465            0.0000000000
      7394      2465  TIP3      H1              3.2061413709       32.1521505524        5.2237051574  W2        2465            0.0000000000
      7395      2465  TIP3      H2              3.1873413709       33.6589505524        5.0785651574  W2        2465            0.0000000000
      7396      2466  TIP3      OH2             4.1201213709       30.7895005524        5.7165251574  W2        2466            0.0000000000
      7397      2466  TIP3      H1              3.2567913709       30.4107105524        5.5509951574  W2        2466            0.0000000000
      7398      2466  TIP3      H2              4.7244913709       30.0509805524        5.6421051574  W2        2466            0.0000000000
      7399      2467  TIP3      OH2             1.8450313709       26.9443305524      -11.1103248426  W2        2467            0.0000000000
      7400      2467  TIP3      H1              2.4556113709       26.5730105524      -10.4735048426  W2        2467            0.0000000000
      7401      2467  TIP3      H2              1.0081813709       26.5230205524      -10.9143248426  W2        2467            0.0000000000
      7402      2468  TIP3      OH2             1.4776013709       28.4991705524       -6.1443348426  W2        2468            0.0000000000
      7403      2468  TIP3      H1              1.7573113709       27.5922105524       -6.0201648426  W2        2468            0.0000000000
      7404      2468  TIP3      H2              2.2367713709       28.9333205524       -6.5334148426  W2        2468            0.0000000000
      7405      2469  TIP3      OH2             2.0894313709       29.0809105524       -0.7084448426  W2        2469            0.0000000000
      7406      2469  TIP3      H1              3.0222313709       29.2929005524       -0.7428448426  W2        2469            0.0000000000
      7407      2469  TIP3      H2              1.8541813709       29.1821205524        0.2138551574  W2        2469            0.0000000000
      7408      2470  TIP3      OH2             2.1186213709       29.8174405524        2.0674951574  W2        2470            0.0000000000
      7409      2470  TIP3      H1              1.2757513709       30.0854805524        2.4334751574  W2        2470            0.0000000000
      7410      2470  TIP3      H2              2.5610513709       30.6396305524        1.8566051574  W2        2470            0.0000000000
      7411      2471  TIP3      OH2           -13.6001586291       28.2653105524        5.5444151574  W2        2471            0.0000000000
      7412      2471  TIP3      H1            -12.6806686291       28.1431405524        5.7807251574  W2        2471            0.0000000000
      7413      2471  TIP3      H2            -14.0497086291       27.5152805524        5.9337651574  W2        2471            0.0000000000
      7414      2472  TIP3      OH2             4.4017813709       23.7974605524        7.4209951574  W2        2472            0.0000000000
      7415      2472  TIP3      H1              4.7514813709       23.1438105524        6.8154651574  W2        2472            0.0000000000
      7416      2472  TIP3      H2              4.5487313709       24.6348705524        6.9812551574  W2        2472            0.0000000000
      7417      2473  TIP3      OH2             2.0910813709       25.7621005524       -6.0961348426  W2        2473            0.0000000000
      7418      2473  TIP3      H1              2.2735813709       25.3132505524       -5.2706348426  W2        2473            0.0000000000
      7419      2473  TIP3      H2              1.4913713709       25.1775405524       -6.5596748426  W2        2473            0.0000000000
      7420      2474  TIP3      OH2           -12.3789086291       26.5774705524       -1.5642948426  W2        2474            0.0000000000
      7421      2474  TIP3      H1            -11.9337486291       25.7857205524       -1.2623248426  W2        2474            0.0000000000
      7422      2474  TIP3      H2            -11.9126086291       27.2939905524       -1.1337348426  W2        2474            0.0000000000
      7423      2475  TIP3      OH2           -14.0748786291       29.5767705524       -0.4952748426  W2        2475            0.0000000000
      7424      2475  TIP3      H1            -13.5828986291       29.3558205524       -1.2860748426  W2        2475            0.0000000000
      7425      2475  TIP3      H2            -13.7127886291       30.4171105524       -0.2143248426  W2        2475            0.0000000000
      7426      2476  TIP3      OH2             3.9215013709       25.9069205524        5.7701251574  W2        2476            0.0000000000
      7427      2476  TIP3      H1              3.0040713709       26.1776305524        5.7344751574  W2        2476            0.0000000000
      7428      2476  TIP3      H2              4.0444413709       25.3717605524        4.9860951574  W2        2476            0.0000000000
      7429      2477  TIP3      OH2             3.9577013709       25.8299105524       -9.5681048426  W2        2477            0.0000000000
      7430      2477  TIP3      H1              4.3699613709       25.1084805524      -10.0433048426  W2        2477            0.0000000000
      7431      2477  TIP3      H2              4.6393513709       26.4993705524       -9.5096748426  W2        2477            0.0000000000
      7432      2478  TIP3      OH2           -13.7612286291       25.8346805524       -6.4410348426  W2        2478            0.0000000000
      7433      2478  TIP3      H1            -14.6863886291       26.0433405524       -6.5704848426  W2        2478            0.0000000000
      7434      2478  TIP3      H2            -13.3072386291       26.3187605524       -7.1308048426  W2        2478            0.0000000000
      7435      2479  TIP3      OH2           -13.7976886291       24.5725805524        1.9032151574  W2        2479            0.0000000000
      7436      2479  TIP3      H1            -14.4626386291       24.3266105524        2.5463051574  W2        2479            0.0000000000
      7437      2479  TIP3      H2            -14.2405586291       25.1946205524        1.3260151574  W2        2479            0.0000000000
      7438      2480  TIP3      OH2             2.9220913709       23.9965505524        3.5892051574  W2        2480            0.0000000000
      7439      2480  TIP3      H1              2.1094413709       24.3215805524        3.2016751574  W2        2480            0.0000000000
      7440      2480  TIP3      H2              3.1549413709       23.2364005524        3.0561151574  W2        2480            0.0000000000
      7441      2481  TIP3      OH2            -3.6480586291       25.4456105524       -2.0879748426  W2        2481            0.0000000000
      7442      2481  TIP3      H1             -4.3223786291       24.8161705524       -1.8323948426  W2        2481            0.0000000000
      7443      2481  TIP3      H2             -3.0841386291       24.9615005524       -2.6911848426  W2        2481            0.0000000000
      7444      2482  TIP3      OH2             1.4946613709       23.5530105524       -1.9752648426  W2        2482            0.0000000000
      7445      2482  TIP3      H1              2.0984213709       24.1005505524       -2.4771648426  W2        2482            0.0000000000
      7446      2482  TIP3      H2              0.6248613709       23.8720505524       -2.2158548426  W2        2482            0.0000000000
      7447      2483  TIP3      OH2             3.2217013709       24.6918805524       -3.6421748426  W2        2483            0.0000000000
      7448      2483  TIP3      H1              3.8334513709       24.1774505524       -4.1688148426  W2        2483            0.0000000000
      7449      2483  TIP3      H2              3.6040413709       25.5690905524       -3.6187348426  W2        2483            0.0000000000
      7450      2484  TIP3      OH2           -11.3213086291       24.0796405524       -4.2659848426  W2        2484            0.0000000000
      7451      2484  TIP3      H1            -12.0983286291       23.8451305524       -4.7733948426  W2        2484            0.0000000000
      7452      2484  TIP3      H2            -10.7909486291       23.2828505524       -4.2571848426  W2        2484            0.0000000000
      7453      2485  TIP3      OH2           -12.4849686291       23.8774505524       -8.4623748426  W2        2485            0.0000000000
      7454      2485  TIP3      H1            -12.0458986291       24.4885005524       -9.0540248426  W2        2485            0.0000000000
      7455      2485  TIP3      H2            -13.1187286291       24.4158605524       -7.9883748426  W2        2485            0.0000000000
      7456      2486  TIP3      OH2            -6.7420486291       24.0063505524       -4.4526748426  W2        2486            0.0000000000
      7457      2486  TIP3      H1             -5.8677086291       24.3947805524       -4.4822448426  W2        2486            0.0000000000
      7458      2486  TIP3      H2             -6.8779686291       23.7911305524       -3.5299548426  W2        2486            0.0000000000
      7459      2487  TIP3      OH2            -1.1852086291       24.0363305524       -2.8035048426  W2        2487            0.0000000000
      7460      2487  TIP3      H1             -1.1090486291       24.1314905524       -3.7529048426  W2        2487            0.0000000000
      7461      2487  TIP3      H2             -1.4602886291       23.1286205524       -2.6745948426  W2        2487            0.0000000000
      7462      2488  TIP3      OH2             0.1680513709       24.0621105524       -7.1110048426  W2        2488            0.0000000000
      7463      2488  TIP3      H1             -0.5348386291       24.6770305524       -7.3208648426  W2        2488            0.0000000000
      7464      2488  TIP3      H2             -0.2768086291       23.2247805524       -6.9799148426  W2        2488            0.0000000000
      7465      2489  TIP3      OH2           -10.6240586291       25.7936005524      -10.0199648426  W2        2489            0.0000000000
      7466      2489  TIP3      H1            -10.1327186291       25.1638405524      -10.5474148426  W2        2489            0.0000000000
      7467      2489  TIP3      H2            -10.0004286291       26.0895405524       -9.3568448426  W2        2489            0.0000000000
      7468      2490  TIP3      OH2            -5.5980486291       26.0867505524       -7.5629148426  W2        2490            0.0000000000
      7469      2490  TIP3      H1             -5.4199186291       25.4400705524       -6.8800548426  W2        2490            0.0000000000
      7470      2490  TIP3      H2             -5.6514286291       26.9205205524       -7.0958048426  W2        2490            0.0000000000
      7471      2491  TIP3      OH2           -11.3635086291       24.5938305524        5.2516351574  W2        2491            0.0000000000
      7472      2491  TIP3      H1            -11.7296886291       23.8280905524        5.6941051574  W2        2491            0.0000000000
      7473      2491  TIP3      H2            -10.4506586291       24.6228505524        5.5381451574  W2        2491            0.0000000000
      7474      2492  TIP3      OH2            -9.3904286291       23.9442705524        6.7873451574  W2        2492            0.0000000000
      7475      2492  TIP3      H1             -8.4920686291       23.6702905524        6.6026851574  W2        2492            0.0000000000
      7476      2492  TIP3      H2             -9.7771186291       23.2018705524        7.2516051574  W2        2492            0.0000000000
      7477      2493  TIP3      OH2            -0.9691986291       23.2768005524        6.9696251574  W2        2493            0.0000000000
      7478      2493  TIP3      H1             -0.8924786291       22.8508705524        7.8233951574  W2        2493            0.0000000000
      7479      2493  TIP3      H2             -0.0755386291       23.2902705524        6.6269751574  W2        2493            0.0000000000
      7480      2494  TIP3      OH2            15.5460813709       32.4909405524       -0.8884148426  W2        2494            0.0000000000
      7481      2494  TIP3      H1             15.5078313709       31.8445705524       -0.1834548426  W2        2494            0.0000000000
      7482      2494  TIP3      H2             15.2237313709       32.0243805524       -1.6595448426  W2        2494            0.0000000000
      7483      2495  TIP3      OH2             7.9145813709       32.1051505524        0.7045751574  W2        2495            0.0000000000
      7484      2495  TIP3      H1              7.9557913709       31.4794805524        1.4278151574  W2        2495            0.0000000000
      7485      2495  TIP3      H2              8.6173513709       32.7290105524        0.8866151574  W2        2495            0.0000000000
      7486      2496  TIP3      OH2             5.4479413709       30.2153005524       -5.3676348426  W2        2496            0.0000000000
      7487      2496  TIP3      H1              5.0002813709       31.0611705524       -5.3859848426  W2        2496            0.0000000000
      7488      2496  TIP3      H2              4.8870613709       29.6357205524       -5.8831248426  W2        2496            0.0000000000
      7489      2497  TIP3      OH2             6.1585513709       32.3772605524       -3.2418348426  W2        2497            0.0000000000
      7490      2497  TIP3      H1              6.3719013709       31.6074205524       -2.7145348426  W2        2497            0.0000000000
      7491      2497  TIP3      H2              6.8963113709       32.4669305524       -3.8450748426  W2        2497            0.0000000000
      7492      2498  TIP3      OH2            22.5985013709       26.5246105524        0.3783051574  W2        2498            0.0000000000
      7493      2498  TIP3      H1             22.6477213709       27.1347305524        1.1142151574  W2        2498            0.0000000000
      7494      2498  TIP3      H2             23.0240113709       26.9857005524       -0.3445848426  W2        2498            0.0000000000
      7495      2499  TIP3      OH2            17.0762213709       29.3173205524       -0.1548348426  W2        2499            0.0000000000
      7496      2499  TIP3      H1             17.2188113709       28.3710205524       -0.1346748426  W2        2499            0.0000000000
      7497      2499  TIP3      H2             16.9701213709       29.5243005524       -1.0833448426  W2        2499            0.0000000000
      7498      2500  TIP3      OH2            10.2310513709       27.4189605524       -2.8823548426  W2        2500            0.0000000000
      7499      2500  TIP3      H1             10.2741613709       28.2788105524       -3.3007248426  W2        2500            0.0000000000
      7500      2500  TIP3      H2              9.7734613709       26.8664305524       -3.5160348426  W2        2500            0.0000000000
      7501      2501  TIP3      OH2            17.9533213709       27.5495205524       -4.4815248426  W2        2501            0.0000000000
      7502      2501  TIP3      H1             18.5997513709       27.2208405524       -3.8567648426  W2        2501            0.0000000000
      7503      2501  TIP3      H2             18.4632613709       28.0674205524       -5.1043848426  W2        2501            0.0000000000
      7504      2502  TIP3      OH2             6.8512013709       29.8155405524       -2.1202148426  W2        2502            0.0000000000
      7505      2502  TIP3      H1              7.5048613709       29.2657105524       -1.6882048426  W2        2502            0.0000000000
      7506      2502  TIP3      H2              6.8751313709       29.5414405524       -3.0370148426  W2        2502            0.0000000000
      7507      2503  TIP3      OH2            12.0076513709       31.3656705524       -2.9050648426  W2        2503            0.0000000000
      7508      2503  TIP3      H1             12.6237513709       30.8392105524       -2.3956648426  W2        2503            0.0000000000
      7509      2503  TIP3      H2             11.4215313709       30.7255405524       -3.3087048426  W2        2503            0.0000000000
      7510      2504  TIP3      OH2            22.9899613709       28.0025305524        2.6142851574  W2        2504            0.0000000000
      7511      2504  TIP3      H1             22.3014213709       28.6606005524        2.5189451574  W2        2504            0.0000000000
      7512      2504  TIP3      H2             23.0054213709       27.8053205524        3.5508251574  W2        2504            0.0000000000
      7513      2505  TIP3      OH2             9.0412413709       26.3368005524        1.1917251574  W2        2505            0.0000000000
      7514      2505  TIP3      H1              8.8224113709       26.8668605524        0.4253251574  W2        2505            0.0000000000
      7515      2505  TIP3      H2              8.3733313709       26.5633505524        1.8388651574  W2        2505            0.0000000000
      7516      2506  TIP3      OH2            19.7171613709       26.8404505524       -2.5009348426  W2        2506            0.0000000000
      7517      2506  TIP3      H1             19.5019613709       26.0747905524       -1.9683348426  W2        2506            0.0000000000
      7518      2506  TIP3      H2             20.3729013709       27.3129105524       -1.9880848426  W2        2506            0.0000000000
      7519      2507  TIP3      OH2             8.6349713709       28.2289805524       -0.8560548426  W2        2507            0.0000000000
      7520      2507  TIP3      H1              9.2486013709       28.8617405524       -0.4828148426  W2        2507            0.0000000000
      7521      2507  TIP3      H2              9.1470413709       27.7564805524       -1.5123648426  W2        2507            0.0000000000
      7522      2508  TIP3      OH2            20.0645713709       25.5555805524        1.1784151574  W2        2508            0.0000000000
      7523      2508  TIP3      H1             19.3284913709       26.1662905524        1.1405451574  W2        2508            0.0000000000
      7524      2508  TIP3      H2             20.7479713709       25.9704805524        0.6520551574  W2        2508            0.0000000000
      7525      2509  TIP3      OH2            13.0677113709       23.6423105524       -1.3557848426  W2        2509            0.0000000000
      7526      2509  TIP3      H1             12.9501313709       22.6939105524       -1.4099548426  W2        2509            0.0000000000
      7527      2509  TIP3      H2             12.2127213709       23.9749205524       -1.0826748426  W2        2509            0.0000000000
      7528      2510  TIP3      OH2            15.3342013709       32.4798705524       -6.8552048426  W2        2510            0.0000000000
      7529      2510  TIP3      H1             14.6227513709       33.0148405524       -7.2071548426  W2        2510            0.0000000000
      7530      2510  TIP3      H2             16.0251613709       32.5350805524       -7.5153148426  W2        2510            0.0000000000
      7531      2511  TIP3      OH2            15.3881213709       30.9373005524       -9.8167048426  W2        2511            0.0000000000
      7532      2511  TIP3      H1             16.0891113709       30.9599905524       -9.1653048426  W2        2511            0.0000000000
      7533      2511  TIP3      H2             15.6904113709       30.3092705524      -10.4727748426  W2        2511            0.0000000000
      7534      2512  TIP3      OH2            22.7035913709       31.8577205524        1.4382351574  W2        2512            0.0000000000
      7535      2512  TIP3      H1             22.0510013709       32.5522805524        1.5273251574  W2        2512            0.0000000000
      7536      2512  TIP3      H2             23.1686213709       32.0678105524        0.6283951574  W2        2512            0.0000000000
      7537      2513  TIP3      OH2            18.7399713709       32.6892005524       -5.9036148426  W2        2513            0.0000000000
      7538      2513  TIP3      H1             18.0080713709       32.9175705524       -5.3305548426  W2        2513            0.0000000000
      7539      2513  TIP3      H2             19.1871913709       31.9754705524       -5.4488648426  W2        2513            0.0000000000
      7540      2514  TIP3      OH2            18.6373213709       30.8634605524        3.1640851574  W2        2514            0.0000000000
      7541      2514  TIP3      H1             18.7172313709       31.6269005524        3.7359351574  W2        2514            0.0000000000
      7542      2514  TIP3      H2             18.0360913709       31.1427005524        2.4735951574  W2        2514            0.0000000000
      7543      2515  TIP3      OH2            10.7518913709       32.0883805524       -0.3876148426  W2        2515            0.0000000000
      7544      2515  TIP3      H1             11.3171413709       32.2098005524       -1.1504948426  W2        2515            0.0000000000
      7545      2515  TIP3      H2             11.0707813709       32.7258805524        0.2512351574  W2        2515            0.0000000000
      7546      2516  TIP3      OH2            17.6109213709       31.8514905524       -8.2184948426  W2        2516            0.0000000000
      7547      2516  TIP3      H1             18.1904713709       32.0015205524       -7.4716048426  W2        2516            0.0000000000
      7548      2516  TIP3      H2             18.0249213709       32.3222305524       -8.9418548426  W2        2516            0.0000000000
      7549      2517  TIP3      OH2             8.5519513709       32.6857605524        3.5581451574  W2        2517            0.0000000000
      7550      2517  TIP3      H1              8.6222713709       33.3364405524        4.2566451574  W2        2517            0.0000000000
      7551      2517  TIP3      H2              7.6611713709       32.7885105524        3.2232351574  W2        2517            0.0000000000
      7552      2518  TIP3      OH2            21.3097613709       23.6015305524       -8.4055248426  W2        2518            0.0000000000
      7553      2518  TIP3      H1             20.4098313709       23.7404305524       -8.1104648426  W2        2518            0.0000000000
      7554      2518  TIP3      H2             21.5616013709       24.4329905524       -8.8073548426  W2        2518            0.0000000000
      7555      2519  TIP3      OH2             9.3756113709       32.3892505524       -6.4318348426  W2        2519            0.0000000000
      7556      2519  TIP3      H1              9.0837413709       33.1574205524       -6.9227048426  W2        2519            0.0000000000
      7557      2519  TIP3      H2              8.7011313709       31.7298705524       -6.5946948426  W2        2519            0.0000000000
      7558      2520  TIP3      OH2            20.5687213709       29.6917705524        5.4297551574  W2        2520            0.0000000000
      7559      2520  TIP3      H1             20.1614013709       30.1723305524        4.7090851574  W2        2520            0.0000000000
      7560      2520  TIP3      H2             20.6092913709       28.7863705524        5.1218351574  W2        2520            0.0000000000
      7561      2521  TIP3      OH2            10.3364713709       24.5457605524       -0.5781548426  W2        2521            0.0000000000
      7562      2521  TIP3      H1              9.4748413709       24.4585805524       -0.9858648426  W2        2521            0.0000000000
      7563      2521  TIP3      H2             10.3140413709       25.4017705524       -0.1503948426  W2        2521            0.0000000000
      7564      2522  TIP3      OH2            14.9992513709       24.2678005524        2.7965451574  W2        2522            0.0000000000
      7565      2522  TIP3      H1             15.4195613709       23.8525105524        3.5496051574  W2        2522            0.0000000000
      7566      2522  TIP3      H2             14.0662113709       24.0891305524        2.9137451574  W2        2522            0.0000000000
      7567      2523  TIP3      OH2            18.3257413709       28.0233205524        3.6499951574  W2        2523            0.0000000000
      7568      2523  TIP3      H1             17.8116913709       27.8975405524        4.4475951574  W2        2523            0.0000000000
      7569      2523  TIP3      H2             18.1702113709       28.9356305524        3.4056151574  W2        2523            0.0000000000
      7570      2524  TIP3      OH2            19.0882313709       32.8843205524      -10.5887048426  W2        2524            0.0000000000
      7571      2524  TIP3      H1             19.1303113709       32.6617105524      -11.5187048426  W2        2524            0.0000000000
      7572      2524  TIP3      H2             19.9374413709       33.2830305524      -10.3987148426  W2        2524            0.0000000000
      7573      2525  TIP3      OH2            14.6609813709       26.7601405524       -9.9183748426  W2        2525            0.0000000000
      7574      2525  TIP3      H1             14.4074613709       26.7793005524       -8.9955648426  W2        2525            0.0000000000
      7575      2525  TIP3      H2             14.4041913709       25.8886805524      -10.2197548426  W2        2525            0.0000000000
      7576      2526  TIP3      OH2            10.4274813709       29.5112105524        0.5168651574  W2        2526            0.0000000000
      7577      2526  TIP3      H1              9.7856913709       29.4709405524        1.2258751574  W2        2526            0.0000000000
      7578      2526  TIP3      H2             10.4646813709       30.4376805524        0.2791651574  W2        2526            0.0000000000
      7579      2527  TIP3      OH2            10.4243913709       29.7322205524       -4.5711348426  W2        2527            0.0000000000
      7580      2527  TIP3      H1              9.5316813709       29.3918305524       -4.6297548426  W2        2527            0.0000000000
      7581      2527  TIP3      H2             10.8750513709       29.3553105524       -5.3268148426  W2        2527            0.0000000000
      7582      2528  TIP3      OH2            15.9599413709       30.1482505524       -5.7540548426  W2        2528            0.0000000000
      7583      2528  TIP3      H1             15.5509713709       30.9631105524       -6.0455748426  W2        2528            0.0000000000
      7584      2528  TIP3      H2             16.6805613709       30.0082605524       -6.3683448426  W2        2528            0.0000000000
      7585      2529  TIP3      OH2            15.0621013709       30.3238905524        5.7340151574  W2        2529            0.0000000000
      7586      2529  TIP3      H1             14.4994813709       29.6190505524        6.0547951574  W2        2529            0.0000000000
      7587      2529  TIP3      H2             15.8884413709       30.2030805524        6.2017751574  W2        2529            0.0000000000
      7588      2530  TIP3      OH2            16.9647113709       29.5942905524       -2.9400848426  W2        2530            0.0000000000
      7589      2530  TIP3      H1             16.7691613709       30.1999705524       -3.6550248426  W2        2530            0.0000000000
      7590      2530  TIP3      H2             17.1459713709       28.7608105524       -3.3744548426  W2        2530            0.0000000000
      7591      2531  TIP3      OH2             8.1775313709       29.8315605524        2.3840651574  W2        2531            0.0000000000
      7592      2531  TIP3      H1              8.1394713709       30.2317205524        3.2527751574  W2        2531            0.0000000000
      7593      2531  TIP3      H2              7.6866413709       29.0148005524        2.4743551574  W2        2531            0.0000000000
      7594      2532  TIP3      OH2            11.5432713709       27.2057905524      -10.8173348426  W2        2532            0.0000000000
      7595      2532  TIP3      H1             11.1123413709       26.7608005524      -10.0875948426  W2        2532            0.0000000000
      7596      2532  TIP3      H2             10.8251413709       27.5774205524      -11.3295848426  W2        2532            0.0000000000
      7597      2533  TIP3      OH2             4.7856113709       26.9477405524       -3.7654648426  W2        2533            0.0000000000
      7598      2533  TIP3      H1              5.4163813709       26.9189505524       -3.0460748426  W2        2533            0.0000000000
      7599      2533  TIP3      H2              5.2350413709       26.5226105524       -4.4958748426  W2        2533            0.0000000000
      7600      2534  TIP3      OH2             6.0598213709       27.6939405524       -8.3414248426  W2        2534            0.0000000000
      7601      2534  TIP3      H1              6.5339913709       28.2849305524       -8.9263348426  W2        2534            0.0000000000
      7602      2534  TIP3      H2              5.3424613709       28.2242305524       -7.9944148426  W2        2534            0.0000000000
      7603      2535  TIP3      OH2            16.2286313709       31.2324205524        1.7311551574  W2        2535            0.0000000000
      7604      2535  TIP3      H1             16.5521113709       30.6013905524        1.0882051574  W2        2535            0.0000000000
      7605      2535  TIP3      H2             15.7885613709       30.6976405524        2.3918951574  W2        2535            0.0000000000
      7606      2536  TIP3      OH2            13.0059213709       27.1599705524       -3.4847248426  W2        2536            0.0000000000
      7607      2536  TIP3      H1             12.0950313709       27.2166505524       -3.1961248426  W2        2536            0.0000000000
      7608      2536  TIP3      H2             13.5112113709       27.0995205524       -2.6740048426  W2        2536            0.0000000000
      7609      2537  TIP3      OH2             7.8342613709       28.7886005524       -4.6579648426  W2        2537            0.0000000000
      7610      2537  TIP3      H1              6.9450613709       28.8881505524       -4.9980048426  W2        2537            0.0000000000
      7611      2537  TIP3      H2              8.1307513709       27.9469005524       -5.0041748426  W2        2537            0.0000000000
      7612      2538  TIP3      OH2            11.4874413709       28.7888605524       -7.0015048426  W2        2538            0.0000000000
      7613      2538  TIP3      H1             12.4189913709       28.9178605524       -6.8231948426  W2        2538            0.0000000000
      7614      2538  TIP3      H2             11.2724713709       29.4582905524       -7.6510348426  W2        2538            0.0000000000
      7615      2539  TIP3      OH2            17.4111113709       26.3946005524       -0.2205448426  W2        2539            0.0000000000
      7616      2539  TIP3      H1             16.7342713709       26.5259105524        0.4434251574  W2        2539            0.0000000000
      7617      2539  TIP3      H2             16.9256013709       26.2395505524       -1.0307748426  W2        2539            0.0000000000
      7618      2540  TIP3      OH2            10.1614613709       29.9830805524       -9.4348948426  W2        2540            0.0000000000
      7619      2540  TIP3      H1              9.6189713709       29.6034605524      -10.1261348426  W2        2540            0.0000000000
      7620      2540  TIP3      H2             10.9949513709       30.1775505524       -9.8634848426  W2        2540            0.0000000000
      7621      2541  TIP3      OH2            14.3258913709       29.9472705524       -1.5977648426  W2        2541            0.0000000000
      7622      2541  TIP3      H1             14.8902313709       29.4009305524       -2.1448048426  W2        2541            0.0000000000
      7623      2541  TIP3      H2             14.1782313709       29.4254605524       -0.8090048426  W2        2541            0.0000000000
      7624      2542  TIP3      OH2             9.3278613709       26.0838805524       -5.1792848426  W2        2542            0.0000000000
      7625      2542  TIP3      H1              9.0108113709       25.1814105524       -5.2147448426  W2        2542            0.0000000000
      7626      2542  TIP3      H2             10.1092713709       26.0856205524       -5.7321248426  W2        2542            0.0000000000
      7627      2543  TIP3      OH2            12.9524813709       28.3358805524        0.8162751574  W2        2543            0.0000000000
      7628      2543  TIP3      H1             12.1170113709       28.7898305524        0.9265151574  W2        2543            0.0000000000
      7629      2543  TIP3      H2             13.4765413709       28.6117305524        1.5682651574  W2        2543            0.0000000000
      7630      2544  TIP3      OH2            17.3944213709       27.3626405524       -9.2998248426  W2        2544            0.0000000000
      7631      2544  TIP3      H1             16.4558413709       27.4742005524       -9.4509448426  W2        2544            0.0000000000
      7632      2544  TIP3      H2             17.6916313709       28.2193305524       -8.9932548426  W2        2544            0.0000000000
      7633      2545  TIP3      OH2            18.1127713709       29.2299105524       -7.6390848426  W2        2545            0.0000000000
      7634      2545  TIP3      H1             19.0046713709       29.0924105524       -7.3199648426  W2        2545            0.0000000000
      7635      2545  TIP3      H2             18.1691313709       30.0205205524       -8.1757348426  W2        2545            0.0000000000
      7636      2546  TIP3      OH2             5.6295413709       32.3043405524        3.5855551574  W2        2546            0.0000000000
      7637      2546  TIP3      H1              5.8524013709       31.8863005524        4.4173051574  W2        2546            0.0000000000
      7638      2546  TIP3      H2              5.0275513709       31.6918405524        3.1628351574  W2        2546            0.0000000000
      7639      2547  TIP3      OH2            12.6460313709       31.8213305524        5.7985251574  W2        2547            0.0000000000
      7640      2547  TIP3      H1             12.3501113709       31.6556305524        4.9034351574  W2        2547            0.0000000000
      7641      2547  TIP3      H2             13.5775513709       31.6013605524        5.7879151574  W2        2547            0.0000000000
      7642      2548  TIP3      OH2            22.9976413709       29.4393205524       -7.9444148426  W2        2548            0.0000000000
      7643      2548  TIP3      H1             22.4432713709       29.0431205524       -8.6166648426  W2        2548            0.0000000000
      7644      2548  TIP3      H2             23.0980013709       30.3498405524       -8.2220848426  W2        2548            0.0000000000
      7645      2549  TIP3      OH2             6.7512813709       32.2238805524       -9.7379048426  W2        2549            0.0000000000
      7646      2549  TIP3      H1              7.3672713709       32.8506005524       -9.3584248426  W2        2549            0.0000000000
      7647      2549  TIP3      H2              5.8895413709       32.5398605524       -9.4662548426  W2        2549            0.0000000000
      7648      2550  TIP3      OH2             7.2634913709       27.0576105524        3.1436951574  W2        2550            0.0000000000
      7649      2550  TIP3      H1              6.3707213709       27.3961505524        3.0760951574  W2        2550            0.0000000000
      7650      2550  TIP3      H2              7.1647713709       26.2022205524        3.5617751574  W2        2550            0.0000000000
      7651      2551  TIP3      OH2            15.9978313709       26.7986405524        2.0335551574  W2        2551            0.0000000000
      7652      2551  TIP3      H1             16.6966213709       26.8725105524        2.6835251574  W2        2551            0.0000000000
      7653      2551  TIP3      H2             15.6169713709       25.9341405524        2.1878451574  W2        2551            0.0000000000
      7654      2552  TIP3      OH2            16.7823213709       26.4508105524       -6.8692148426  W2        2552            0.0000000000
      7655      2552  TIP3      H1             17.0021513709       26.9223505524       -7.6726748426  W2        2552            0.0000000000
      7656      2552  TIP3      H2             17.3407213709       26.8450705524       -6.1991548426  W2        2552            0.0000000000
      7657      2553  TIP3      OH2            13.9823113709       28.1786905524       -6.0343748426  W2        2553            0.0000000000
      7658      2553  TIP3      H1             14.7945713709       28.6830105524       -5.9882048426  W2        2553            0.0000000000
      7659      2553  TIP3      H2             13.7376113709       28.0336605524       -5.1204148426  W2        2553            0.0000000000
      7660      2554  TIP3      OH2            14.5179513709       29.1649605524        3.1502851574  W2        2554            0.0000000000
      7661      2554  TIP3      H1             14.6369813709       29.7385005524        3.9073251574  W2        2554            0.0000000000
      7662      2554  TIP3      H2             15.1734113709       28.4769005524        3.2650651574  W2        2554            0.0000000000
      7663      2555  TIP3      OH2            14.8659813709       25.2599905524       -5.0962648426  W2        2555            0.0000000000
      7664      2555  TIP3      H1             14.5193313709       25.8770505524       -4.4518348426  W2        2555            0.0000000000
      7665      2555  TIP3      H2             15.5246713709       25.7605605524       -5.5777148426  W2        2555            0.0000000000
      7666      2556  TIP3      OH2            10.5236813709       26.3229305524       -8.4090148426  W2        2556            0.0000000000
      7667      2556  TIP3      H1             10.4401613709       27.2112405524       -8.0623748426  W2        2556            0.0000000000
      7668      2556  TIP3      H2             11.4137113709       26.0576005524       -8.1773348426  W2        2556            0.0000000000
      7669      2557  TIP3      OH2            20.7225313709       27.0719905524        3.9852551574  W2        2557            0.0000000000
      7670      2557  TIP3      H1             19.8061113709       27.3341605524        3.8976251574  W2        2557            0.0000000000
      7671      2557  TIP3      H2             21.0580313709       27.0688905524        3.0887851574  W2        2557            0.0000000000
      7672      2558  TIP3      OH2            19.3246313709       30.8220905524       -1.9190148426  W2        2558            0.0000000000
      7673      2558  TIP3      H1             18.5270713709       30.4071105524       -2.2475148426  W2        2558            0.0000000000
      7674      2558  TIP3      H2             19.7697413709       30.1314605524       -1.4279648426  W2        2558            0.0000000000
      7675      2559  TIP3      OH2             7.0981313709       29.4144505524      -10.2326248426  W2        2559            0.0000000000
      7676      2559  TIP3      H1              7.0533913709       30.3537605524      -10.0539248426  W2        2559            0.0000000000
      7677      2559  TIP3      H2              6.2104513709       29.1789405524      -10.5024148426  W2        2559            0.0000000000
      7678      2560  TIP3      OH2             7.9063313709       24.1961105524       -1.5595248426  W2        2560            0.0000000000
      7679      2560  TIP3      H1              7.6773113709       24.2553605524       -2.4870248426  W2        2560            0.0000000000
      7680      2560  TIP3      H2              7.4636713709       23.4046605524       -1.2531148426  W2        2560            0.0000000000
      7681      2561  TIP3      OH2             6.8646313709       31.7599305524        6.3052151574  W2        2561            0.0000000000
      7682      2561  TIP3      H1              7.2727513709       30.9025905524        6.1842751574  W2        2561            0.0000000000
      7683      2561  TIP3      H2              6.6043913709       31.7740605524        7.2262451574  W2        2561            0.0000000000
      7684      2562  TIP3      OH2            11.5227313709       32.8757905524       -8.6764548426  W2        2562            0.0000000000
      7685      2562  TIP3      H1             11.0629313709       32.3916205524       -7.9906048426  W2        2562            0.0000000000
      7686      2562  TIP3      H2             11.7776013709       32.2073305524       -9.3124048426  W2        2562            0.0000000000
      7687      2563  TIP3      OH2            10.8116613709       30.7685005524        3.6795051574  W2        2563            0.0000000000
      7688      2563  TIP3      H1             10.1932713709       31.4431605524        3.9599751574  W2        2563            0.0000000000
      7689      2563  TIP3      H2             11.1557813709       31.0898905524        2.8461251574  W2        2563            0.0000000000
      7690      2564  TIP3      OH2            12.5937713709       31.1189705524      -10.4141348426  W2        2564            0.0000000000
      7691      2564  TIP3      H1             12.4132713709       30.9640905524      -11.3413048426  W2        2564            0.0000000000
      7692      2564  TIP3      H2             13.5438213709       31.2268405524      -10.3693448426  W2        2564            0.0000000000
      7693      2565  TIP3      OH2            11.1510313709       28.1235805524        4.7618151574  W2        2565            0.0000000000
      7694      2565  TIP3      H1             11.3011213709       27.3947105524        4.1597851574  W2        2565            0.0000000000
      7695      2565  TIP3      H2             11.1532713709       28.9007505524        4.2030351574  W2        2565            0.0000000000
      7696      2566  TIP3      OH2            11.5636013709       26.4931605524        2.2545551574  W2        2566            0.0000000000
      7697      2566  TIP3      H1             12.0993513709       26.9448305524        1.6024851574  W2        2566            0.0000000000
      7698      2566  TIP3      H2             10.7115613709       26.3851405524        1.8319651574  W2        2566            0.0000000000
      7699      2567  TIP3      OH2            13.1454413709       31.9327805524        2.4940751574  W2        2567            0.0000000000
      7700      2567  TIP3      H1             13.8959213709       31.7765305524        1.9208551574  W2        2567            0.0000000000
      7701      2567  TIP3      H2             12.8062713709       32.7844405524        2.2186251574  W2        2567            0.0000000000
      7702      2568  TIP3      OH2            17.5610613709       29.7479605524        7.5226051574  W2        2568            0.0000000000
      7703      2568  TIP3      H1             17.7531913709       28.8169005524        7.4110551574  W2        2568            0.0000000000
      7704      2568  TIP3      H2             18.4186913709       30.1729105524        7.5121451574  W2        2568            0.0000000000
      7705      2569  TIP3      OH2            18.8777813709       32.5364805524        5.5998751574  W2        2569            0.0000000000
      7706      2569  TIP3      H1             18.5962813709       33.2459405524        5.0222551574  W2        2569            0.0000000000
      7707      2569  TIP3      H2             19.8202113709       32.4637805524        5.4489951574  W2        2569            0.0000000000
      7708      2570  TIP3      OH2             9.6296613709       29.3219305524        6.6733751574  W2        2570            0.0000000000
      7709      2570  TIP3      H1              8.8625613709       28.7894105524        6.4631351574  W2        2570            0.0000000000
      7710      2570  TIP3      H2             10.3085613709       29.0119705524        6.0740051574  W2        2570            0.0000000000
      7711      2571  TIP3      OH2            12.3691513709       23.9497305524        2.6859151574  W2        2571            0.0000000000
      7712      2571  TIP3      H1             12.2711113709       24.8960505524        2.5805351574  W2        2571            0.0000000000
      7713      2571  TIP3      H2             11.6267713709       23.5771105524        2.2102651574  W2        2571            0.0000000000
      7714      2572  TIP3      OH2            13.6332013709       28.2712705524        6.2497551574  W2        2572            0.0000000000
      7715      2572  TIP3      H1             13.3977413709       28.0519405524        7.1512451574  W2        2572            0.0000000000
      7716      2572  TIP3      H2             12.8498913709       28.0643905524        5.7400051574  W2        2572            0.0000000000
      7717      2573  TIP3      OH2            16.3488613709       27.3986205524        5.3251051574  W2        2573            0.0000000000
      7718      2573  TIP3      H1             15.4014013709       27.4305905524        5.4574351574  W2        2573            0.0000000000
      7719      2573  TIP3      H2             16.6615313709       26.7733305524        5.9789251574  W2        2573            0.0000000000
      7720      2574  TIP3      OH2            17.9830113709       26.0327305524        7.3302951574  W2        2574            0.0000000000
      7721      2574  TIP3      H1             17.8861913709       25.0804605524        7.3244851574  W2        2574            0.0000000000
      7722      2574  TIP3      H2             17.6613213709       26.3014105524        8.1908451574  W2        2574            0.0000000000
      7723      2575  TIP3      OH2             7.8099413709       27.2423105524        6.3778451574  W2        2575            0.0000000000
      7724      2575  TIP3      H1              8.0216813709       26.5359205524        5.7675951574  W2        2575            0.0000000000
      7725      2575  TIP3      H2              7.6986913709       26.8049105524        7.2219651574  W2        2575            0.0000000000
      7726      2576  TIP3      OH2            12.5909613709       23.2434705524        5.3571951574  W2        2576            0.0000000000
      7727      2576  TIP3      H1             13.3028013709       22.6036905524        5.3431051574  W2        2576            0.0000000000
      7728      2576  TIP3      H2             12.4900013709       23.5103005524        4.4435051574  W2        2576            0.0000000000
      7729      2577  TIP3      OH2            12.9447113709       24.9263105524        7.4108251574  W2        2577            0.0000000000
      7730      2577  TIP3      H1             12.8129313709       24.4506905524        6.5906751574  W2        2577            0.0000000000
      7731      2577  TIP3      H2             12.3454513709       25.6706705524        7.3555351574  W2        2577            0.0000000000
      7732      2578  TIP3      OH2            22.8364413709       32.3959405524       -5.1697148426  W2        2578            0.0000000000
      7733      2578  TIP3      H1             22.1099013709       31.9162005524       -4.7719548426  W2        2578            0.0000000000
      7734      2578  TIP3      H2             23.4177713709       32.6014105524       -4.4375548426  W2        2578            0.0000000000
      7735      2579  TIP3      OH2            23.1047513709       32.2967905524       -8.7785848426  W2        2579            0.0000000000
      7736      2579  TIP3      H1             22.5828613709       32.6532005524       -9.4974948426  W2        2579            0.0000000000
      7737      2579  TIP3      H2             23.0716713709       32.9715705524       -8.1004948426  W2        2579            0.0000000000
      7738      2580  TIP3      OH2            21.4536513709       29.5363505524      -10.2278748426  W2        2580            0.0000000000
      7739      2580  TIP3      H1             21.5500913709       30.2030505524      -10.9079048426  W2        2580            0.0000000000
      7740      2580  TIP3      H2             21.3136113709       28.7209805524      -10.7093248426  W2        2580            0.0000000000
      7741      2581  TIP3      OH2            20.6231213709       30.9165905524       -4.6068448426  W2        2581            0.0000000000
      7742      2581  TIP3      H1             20.4730013709       29.9714505524       -4.6270648426  W2        2581            0.0000000000
      7743      2581  TIP3      H2             20.2695713709       31.1977305524       -3.7629348426  W2        2581            0.0000000000
      7744      2582  TIP3      OH2            21.4794113709       32.8869205524        5.0319851574  W2        2582            0.0000000000
      7745      2582  TIP3      H1             22.0621413709       32.1521505524        5.2237051574  W2        2582            0.0000000000
      7746      2582  TIP3      H2             22.0433413709       33.6589505524        5.0785651574  W2        2582            0.0000000000
      7747      2583  TIP3      OH2            22.9761213709       30.7895005524        5.7165251574  W2        2583            0.0000000000
      7748      2583  TIP3      H1             22.1127913709       30.4107105524        5.5509951574  W2        2583            0.0000000000
      7749      2583  TIP3      H2             23.5804913709       30.0509805524        5.6421051574  W2        2583            0.0000000000
      7750      2584  TIP3      OH2            20.7010313709       26.9443305524      -11.1103248426  W2        2584            0.0000000000
      7751      2584  TIP3      H1             21.3116113709       26.5730105524      -10.4735048426  W2        2584            0.0000000000
      7752      2584  TIP3      H2             19.8641813709       26.5230205524      -10.9143248426  W2        2584            0.0000000000
      7753      2585  TIP3      OH2            20.3336013709       28.4991705524       -6.1443348426  W2        2585            0.0000000000
      7754      2585  TIP3      H1             20.6133113709       27.5922105524       -6.0201648426  W2        2585            0.0000000000
      7755      2585  TIP3      H2             21.0927713709       28.9333205524       -6.5334148426  W2        2585            0.0000000000
      7756      2586  TIP3      OH2            20.9454313709       29.0809105524       -0.7084448426  W2        2586            0.0000000000
      7757      2586  TIP3      H1             21.8782313709       29.2929005524       -0.7428448426  W2        2586            0.0000000000
      7758      2586  TIP3      H2             20.7101813709       29.1821205524        0.2138551574  W2        2586            0.0000000000
      7759      2587  TIP3      OH2            20.9746213709       29.8174405524        2.0674951574  W2        2587            0.0000000000
      7760      2587  TIP3      H1             20.1317513709       30.0854805524        2.4334751574  W2        2587            0.0000000000
      7761      2587  TIP3      H2             21.4170513709       30.6396305524        1.8566051574  W2        2587            0.0000000000
      7762      2588  TIP3      OH2             5.2558413709       28.2653105524        5.5444151574  W2        2588            0.0000000000
      7763      2588  TIP3      H1              6.1753313709       28.1431405524        5.7807251574  W2        2588            0.0000000000
      7764      2588  TIP3      H2              4.8062913709       27.5152805524        5.9337651574  W2        2588            0.0000000000
      7765      2589  TIP3      OH2            23.2577813709       23.7974605524        7.4209951574  W2        2589            0.0000000000
      7766      2589  TIP3      H1             23.6074813709       23.1438105524        6.8154651574  W2        2589            0.0000000000
      7767      2589  TIP3      H2             23.4047313709       24.6348705524        6.9812551574  W2        2589            0.0000000000
      7768      2590  TIP3      OH2            20.9470813709       25.7621005524       -6.0961348426  W2        2590            0.0000000000
      7769      2590  TIP3      H1             21.1295813709       25.3132505524       -5.2706348426  W2        2590            0.0000000000
      7770      2590  TIP3      H2             20.3473713709       25.1775405524       -6.5596748426  W2        2590            0.0000000000
      7771      2591  TIP3      OH2             6.4770913709       26.5774705524       -1.5642948426  W2        2591            0.0000000000
      7772      2591  TIP3      H1              6.9222513709       25.7857205524       -1.2623248426  W2        2591            0.0000000000
      7773      2591  TIP3      H2              6.9433913709       27.2939905524       -1.1337348426  W2        2591            0.0000000000
      7774      2592  TIP3      OH2             4.7811213709       29.5767705524       -0.4952748426  W2        2592            0.0000000000
      7775      2592  TIP3      H1              5.2731013709       29.3558205524       -1.2860748426  W2        2592            0.0000000000
      7776      2592  TIP3      H2              5.1432113709       30.4171105524       -0.2143248426  W2        2592            0.0000000000
      7777      2593  TIP3      OH2            22.7775013709       25.9069205524        5.7701251574  W2        2593            0.0000000000
      7778      2593  TIP3      H1             21.8600713709       26.1776305524        5.7344751574  W2        2593            0.0000000000
      7779      2593  TIP3      H2             22.9004413709       25.3717605524        4.9860951574  W2        2593            0.0000000000
      7780      2594  TIP3      OH2            22.8137013709       25.8299105524       -9.5681048426  W2        2594            0.0000000000
      7781      2594  TIP3      H1             23.2259613709       25.1084805524      -10.0433048426  W2        2594            0.0000000000
      7782      2594  TIP3      H2             23.4953513709       26.4993705524       -9.5096748426  W2        2594            0.0000000000
      7783      2595  TIP3      OH2             5.0947713709       25.8346805524       -6.4410348426  W2        2595            0.0000000000
      7784      2595  TIP3      H1              4.1696113709       26.0433405524       -6.5704848426  W2        2595            0.0000000000
      7785      2595  TIP3      H2              5.5487613709       26.3187605524       -7.1308048426  W2        2595            0.0000000000
      7786      2596  TIP3      OH2             5.0583113709       24.5725805524        1.9032151574  W2        2596            0.0000000000
      7787      2596  TIP3      H1              4.3933613709       24.3266105524        2.5463051574  W2        2596            0.0000000000
      7788      2596  TIP3      H2              4.6154413709       25.1946205524        1.3260151574  W2        2596            0.0000000000
      7789      2597  TIP3      OH2            21.7780913709       23.9965505524        3.5892051574  W2        2597            0.0000000000
      7790      2597  TIP3      H1             20.9654413709       24.3215805524        3.2016751574  W2        2597            0.0000000000
      7791      2597  TIP3      H2             22.0109413709       23.2364005524        3.0561151574  W2        2597            0.0000000000
      7792      2598  TIP3      OH2            15.2079413709       25.4456105524       -2.0879748426  W2        2598            0.0000000000
      7793      2598  TIP3      H1             14.5336213709       24.8161705524       -1.8323948426  W2        2598            0.0000000000
      7794      2598  TIP3      H2             15.7718613709       24.9615005524       -2.6911848426  W2        2598            0.0000000000
      7795      2599  TIP3      OH2            20.3506613709       23.5530105524       -1.9752648426  W2        2599            0.0000000000
      7796      2599  TIP3      H1             20.9544213709       24.1005505524       -2.4771648426  W2        2599            0.0000000000
      7797      2599  TIP3      H2             19.4808613709       23.8720505524       -2.2158548426  W2        2599            0.0000000000
      7798      2600  TIP3      OH2            22.0777013709       24.6918805524       -3.6421748426  W2        2600            0.0000000000
      7799      2600  TIP3      H1             22.6894513709       24.1774505524       -4.1688148426  W2        2600            0.0000000000
      7800      2600  TIP3      H2             22.4600413709       25.5690905524       -3.6187348426  W2        2600            0.0000000000
      7801      2601  TIP3      OH2             7.5346913709       24.0796405524       -4.2659848426  W2        2601            0.0000000000
      7802      2601  TIP3      H1              6.7576713709       23.8451305524       -4.7733948426  W2        2601            0.0000000000
      7803      2601  TIP3      H2              8.0650513709       23.2828505524       -4.2571848426  W2        2601            0.0000000000
      7804      2602  TIP3      OH2             6.3710313709       23.8774505524       -8.4623748426  W2        2602            0.0000000000
      7805      2602  TIP3      H1              6.8101013709       24.4885005524       -9.0540248426  W2        2602            0.0000000000
      7806      2602  TIP3      H2              5.7372713709       24.4158605524       -7.9883748426  W2        2602            0.0000000000
      7807      2603  TIP3      OH2            12.1139513709       24.0063505524       -4.4526748426  W2        2603            0.0000000000
      7808      2603  TIP3      H1             12.9882913709       24.3947805524       -4.4822448426  W2        2603            0.0000000000
      7809      2603  TIP3      H2             11.9780313709       23.7911305524       -3.5299548426  W2        2603            0.0000000000
      7810      2604  TIP3      OH2            17.6707913709       24.0363305524       -2.8035048426  W2        2604            0.0000000000
      7811      2604  TIP3      H1             17.7469513709       24.1314905524       -3.7529048426  W2        2604            0.0000000000
      7812      2604  TIP3      H2             17.3957113709       23.1286205524       -2.6745948426  W2        2604            0.0000000000
      7813      2605  TIP3      OH2            19.0240513709       24.0621105524       -7.1110048426  W2        2605            0.0000000000
      7814      2605  TIP3      H1             18.3211613709       24.6770305524       -7.3208648426  W2        2605            0.0000000000
      7815      2605  TIP3      H2             18.5791913709       23.2247805524       -6.9799148426  W2        2605            0.0000000000
      7816      2606  TIP3      OH2             8.2319413709       25.7936005524      -10.0199648426  W2        2606            0.0000000000
      7817      2606  TIP3      H1              8.7232813709       25.1638405524      -10.5474148426  W2        2606            0.0000000000
      7818      2606  TIP3      H2              8.8555713709       26.0895405524       -9.3568448426  W2        2606            0.0000000000
      7819      2607  TIP3      OH2            13.2579513709       26.0867505524       -7.5629148426  W2        2607            0.0000000000
      7820      2607  TIP3      H1             13.4360813709       25.4400705524       -6.8800548426  W2        2607            0.0000000000
      7821      2607  TIP3      H2             13.2045713709       26.9205205524       -7.0958048426  W2        2607            0.0000000000
      7822      2608  TIP3      OH2             7.4924913709       24.5938305524        5.2516351574  W2        2608            0.0000000000
      7823      2608  TIP3      H1              7.1263113709       23.8280905524        5.6941051574  W2        2608            0.0000000000
      7824      2608  TIP3      H2              8.4053413709       24.6228505524        5.5381451574  W2        2608            0.0000000000
      7825      2609  TIP3      OH2             9.4655713709       23.9442705524        6.7873451574  W2        2609            0.0000000000
      7826      2609  TIP3      H1             10.3639313709       23.6702905524        6.6026851574  W2        2609            0.0000000000
      7827      2609  TIP3      H2              9.0788813709       23.2018705524        7.2516051574  W2        2609            0.0000000000
      7828      2610  TIP3      OH2            17.8868013709       23.2768005524        6.9696251574  W2        2610            0.0000000000
      7829      2610  TIP3      H1             17.9635213709       22.8508705524        7.8233951574  W2        2610            0.0000000000
      7830      2610  TIP3      H2             18.7804613709       23.2902705524        6.6269751574  W2        2610            0.0000000000
      7831      2611  TIP3      OH2            26.7705813709       32.1051505524        0.7045751574  W2        2611            0.0000000000
      7832      2611  TIP3      H1             26.8117913709       31.4794805524        1.4278151574  W2        2611            0.0000000000
      7833      2611  TIP3      H2             27.4733513709       32.7290105524        0.8866151574  W2        2611            0.0000000000
      7834      2612  TIP3      OH2            24.3039413709       30.2153005524       -5.3676348426  W2        2612            0.0000000000
      7835      2612  TIP3      H1             23.8562813709       31.0611705524       -5.3859848426  W2        2612            0.0000000000
      7836      2612  TIP3      H2             23.7430613709       29.6357205524       -5.8831248426  W2        2612            0.0000000000
      7837      2613  TIP3      OH2            25.0145513709       32.3772605524       -3.2418348426  W2        2613            0.0000000000
      7838      2613  TIP3      H1             25.2279013709       31.6074205524       -2.7145348426  W2        2613            0.0000000000
      7839      2613  TIP3      H2             25.7523113709       32.4669305524       -3.8450748426  W2        2613            0.0000000000
      7840      2614  TIP3      OH2            29.0870513709       27.4189605524       -2.8823548426  W2        2614            0.0000000000
      7841      2614  TIP3      H1             29.1301613709       28.2788105524       -3.3007248426  W2        2614            0.0000000000
      7842      2614  TIP3      H2             28.6294613709       26.8664305524       -3.5160348426  W2        2614            0.0000000000
      7843      2615  TIP3      OH2            25.7072013709       29.8155405524       -2.1202148426  W2        2615            0.0000000000
      7844      2615  TIP3      H1             26.3608613709       29.2657105524       -1.6882048426  W2        2615            0.0000000000
      7845      2615  TIP3      H2             25.7311313709       29.5414405524       -3.0370148426  W2        2615            0.0000000000
      7846      2616  TIP3      OH2            30.8636513709       31.3656705524       -2.9050648426  W2        2616            0.0000000000
      7847      2616  TIP3      H1             31.4797513709       30.8392105524       -2.3956648426  W2        2616            0.0000000000
      7848      2616  TIP3      H2             30.2775313709       30.7255405524       -3.3087048426  W2        2616            0.0000000000
      7849      2617  TIP3      OH2            27.8972413709       26.3368005524        1.1917251574  W2        2617            0.0000000000
      7850      2617  TIP3      H1             27.6784113709       26.8668605524        0.4253251574  W2        2617            0.0000000000
      7851      2617  TIP3      H2             27.2293313709       26.5633505524        1.8388651574  W2        2617            0.0000000000
      7852      2618  TIP3      OH2            27.4909713709       28.2289805524       -0.8560548426  W2        2618            0.0000000000
      7853      2618  TIP3      H1             28.1046013709       28.8617405524       -0.4828148426  W2        2618            0.0000000000
      7854      2618  TIP3      H2             28.0030413709       27.7564805524       -1.5123648426  W2        2618            0.0000000000
      7855      2619  TIP3      OH2            31.9237113709       23.6423105524       -1.3557848426  W2        2619            0.0000000000
      7856      2619  TIP3      H1             31.8061313709       22.6939105524       -1.4099548426  W2        2619            0.0000000000
      7857      2619  TIP3      H2             31.0687213709       23.9749205524       -1.0826748426  W2        2619            0.0000000000
      7858      2620  TIP3      OH2            29.6078913709       32.0883805524       -0.3876148426  W2        2620            0.0000000000
      7859      2620  TIP3      H1             30.1731413709       32.2098005524       -1.1504948426  W2        2620            0.0000000000
      7860      2620  TIP3      H2             29.9267813709       32.7258805524        0.2512351574  W2        2620            0.0000000000
      7861      2621  TIP3      OH2            27.4079513709       32.6857605524        3.5581451574  W2        2621            0.0000000000
      7862      2621  TIP3      H1             27.4782713709       33.3364405524        4.2566451574  W2        2621            0.0000000000
      7863      2621  TIP3      H2             26.5171713709       32.7885105524        3.2232351574  W2        2621            0.0000000000
      7864      2622  TIP3      OH2            28.2316113709       32.3892505524       -6.4318348426  W2        2622            0.0000000000
      7865      2622  TIP3      H1             27.9397413709       33.1574205524       -6.9227048426  W2        2622            0.0000000000
      7866      2622  TIP3      H2             27.5571313709       31.7298705524       -6.5946948426  W2        2622            0.0000000000
      7867      2623  TIP3      OH2            29.1924713709       24.5457605524       -0.5781548426  W2        2623            0.0000000000
      7868      2623  TIP3      H1             28.3308413709       24.4585805524       -0.9858648426  W2        2623            0.0000000000
      7869      2623  TIP3      H2             29.1700413709       25.4017705524       -0.1503948426  W2        2623            0.0000000000
      7870      2624  TIP3      OH2            29.2834813709       29.5112105524        0.5168651574  W2        2624            0.0000000000
      7871      2624  TIP3      H1             28.6416913709       29.4709405524        1.2258751574  W2        2624            0.0000000000
      7872      2624  TIP3      H2             29.3206813709       30.4376805524        0.2791651574  W2        2624            0.0000000000
      7873      2625  TIP3      OH2            29.2803913709       29.7322205524       -4.5711348426  W2        2625            0.0000000000
      7874      2625  TIP3      H1             28.3876813709       29.3918305524       -4.6297548426  W2        2625            0.0000000000
      7875      2625  TIP3      H2             29.7310513709       29.3553105524       -5.3268148426  W2        2625            0.0000000000
      7876      2626  TIP3      OH2            27.0335313709       29.8315605524        2.3840651574  W2        2626            0.0000000000
      7877      2626  TIP3      H1             26.9954713709       30.2317205524        3.2527751574  W2        2626            0.0000000000
      7878      2626  TIP3      H2             26.5426413709       29.0148005524        2.4743551574  W2        2626            0.0000000000
      7879      2627  TIP3      OH2            30.3992713709       27.2057905524      -10.8173348426  W2        2627            0.0000000000
      7880      2627  TIP3      H1             29.9683413709       26.7608005524      -10.0875948426  W2        2627            0.0000000000
      7881      2627  TIP3      H2             29.6811413709       27.5774205524      -11.3295848426  W2        2627            0.0000000000
      7882      2628  TIP3      OH2            23.6416113709       26.9477405524       -3.7654648426  W2        2628            0.0000000000
      7883      2628  TIP3      H1             24.2723813709       26.9189505524       -3.0460748426  W2        2628            0.0000000000
      7884      2628  TIP3      H2             24.0910413709       26.5226105524       -4.4958748426  W2        2628            0.0000000000
      7885      2629  TIP3      OH2            24.9158213709       27.6939405524       -8.3414248426  W2        2629            0.0000000000
      7886      2629  TIP3      H1             25.3899913709       28.2849305524       -8.9263348426  W2        2629            0.0000000000
      7887      2629  TIP3      H2             24.1984613709       28.2242305524       -7.9944148426  W2        2629            0.0000000000
      7888      2630  TIP3      OH2            31.8619213709       27.1599705524       -3.4847248426  W2        2630            0.0000000000
      7889      2630  TIP3      H1             30.9510313709       27.2166505524       -3.1961248426  W2        2630            0.0000000000
      7890      2630  TIP3      H2             32.3672113709       27.0995205524       -2.6740048426  W2        2630            0.0000000000
      7891      2631  TIP3      OH2            26.6902613709       28.7886005524       -4.6579648426  W2        2631            0.0000000000
      7892      2631  TIP3      H1             25.8010613709       28.8881505524       -4.9980048426  W2        2631            0.0000000000
      7893      2631  TIP3      H2             26.9867513709       27.9469005524       -5.0041748426  W2        2631            0.0000000000
      7894      2632  TIP3      OH2            30.3434413709       28.7888605524       -7.0015048426  W2        2632            0.0000000000
      7895      2632  TIP3      H1             31.2749913709       28.9178605524       -6.8231948426  W2        2632            0.0000000000
      7896      2632  TIP3      H2             30.1284713709       29.4582905524       -7.6510348426  W2        2632            0.0000000000
      7897      2633  TIP3      OH2            29.0174613709       29.9830805524       -9.4348948426  W2        2633            0.0000000000
      7898      2633  TIP3      H1             28.4749713709       29.6034605524      -10.1261348426  W2        2633            0.0000000000
      7899      2633  TIP3      H2             29.8509513709       30.1775505524       -9.8634848426  W2        2633            0.0000000000
      7900      2634  TIP3      OH2            33.1818913709       29.9472705524       -1.5977648426  W2        2634            0.0000000000
      7901      2634  TIP3      H1             33.7462313709       29.4009305524       -2.1448048426  W2        2634            0.0000000000
      7902      2634  TIP3      H2             33.0342313709       29.4254605524       -0.8090048426  W2        2634            0.0000000000
      7903      2635  TIP3      OH2            28.1838613709       26.0838805524       -5.1792848426  W2        2635            0.0000000000
      7904      2635  TIP3      H1             27.8668113709       25.1814105524       -5.2147448426  W2        2635            0.0000000000
      7905      2635  TIP3      H2             28.9652713709       26.0856205524       -5.7321248426  W2        2635            0.0000000000
      7906      2636  TIP3      OH2            31.8084813709       28.3358805524        0.8162751574  W2        2636            0.0000000000
      7907      2636  TIP3      H1             30.9730113709       28.7898305524        0.9265151574  W2        2636            0.0000000000
      7908      2636  TIP3      H2             32.3325413709       28.6117305524        1.5682651574  W2        2636            0.0000000000
      7909      2637  TIP3      OH2            24.4855413709       32.3043405524        3.5855551574  W2        2637            0.0000000000
      7910      2637  TIP3      H1             24.7084013709       31.8863005524        4.4173051574  W2        2637            0.0000000000
      7911      2637  TIP3      H2             23.8835513709       31.6918405524        3.1628351574  W2        2637            0.0000000000
      7912      2638  TIP3      OH2            31.5020313709       31.8213305524        5.7985251574  W2        2638            0.0000000000
      7913      2638  TIP3      H1             31.2061113709       31.6556305524        4.9034351574  W2        2638            0.0000000000
      7914      2638  TIP3      H2             32.4335513709       31.6013605524        5.7879151574  W2        2638            0.0000000000
      7915      2639  TIP3      OH2            25.6072813709       32.2238805524       -9.7379048426  W2        2639            0.0000000000
      7916      2639  TIP3      H1             26.2232713709       32.8506005524       -9.3584248426  W2        2639            0.0000000000
      7917      2639  TIP3      H2             24.7455413709       32.5398605524       -9.4662548426  W2        2639            0.0000000000
      7918      2640  TIP3      OH2            26.1194913709       27.0576105524        3.1436951574  W2        2640            0.0000000000
      7919      2640  TIP3      H1             25.2267213709       27.3961505524        3.0760951574  W2        2640            0.0000000000
      7920      2640  TIP3      H2             26.0207713709       26.2022205524        3.5617751574  W2        2640            0.0000000000
      7921      2641  TIP3      OH2            32.8383113709       28.1786905524       -6.0343748426  W2        2641            0.0000000000
      7922      2641  TIP3      H1             33.6505713709       28.6830105524       -5.9882048426  W2        2641            0.0000000000
      7923      2641  TIP3      H2             32.5936113709       28.0336605524       -5.1204148426  W2        2641            0.0000000000
      7924      2642  TIP3      OH2            29.3796813709       26.3229305524       -8.4090148426  W2        2642            0.0000000000
      7925      2642  TIP3      H1             29.2961613709       27.2112405524       -8.0623748426  W2        2642            0.0000000000
      7926      2642  TIP3      H2             30.2697113709       26.0576005524       -8.1773348426  W2        2642            0.0000000000
      7927      2643  TIP3      OH2            25.9541313709       29.4144505524      -10.2326248426  W2        2643            0.0000000000
      7928      2643  TIP3      H1             25.9093913709       30.3537605524      -10.0539248426  W2        2643            0.0000000000
      7929      2643  TIP3      H2             25.0664513709       29.1789405524      -10.5024148426  W2        2643            0.0000000000
      7930      2644  TIP3      OH2            26.7623313709       24.1961105524       -1.5595248426  W2        2644            0.0000000000
      7931      2644  TIP3      H1             26.5333113709       24.2553605524       -2.4870248426  W2        2644            0.0000000000
      7932      2644  TIP3      H2             26.3196713709       23.4046605524       -1.2531148426  W2        2644            0.0000000000
      7933      2645  TIP3      OH2            25.7206313709       31.7599305524        6.3052151574  W2        2645            0.0000000000
      7934      2645  TIP3      H1             26.1287513709       30.9025905524        6.1842751574  W2        2645            0.0000000000
      7935      2645  TIP3      H2             25.4603913709       31.7740605524        7.2262451574  W2        2645            0.0000000000
      7936      2646  TIP3      OH2            30.3787313709       32.8757905524       -8.6764548426  W2        2646            0.0000000000
      7937      2646  TIP3      H1             29.9189313709       32.3916205524       -7.9906048426  W2        2646            0.0000000000
      7938      2646  TIP3      H2             30.6336013709       32.2073305524       -9.3124048426  W2        2646            0.0000000000
      7939      2647  TIP3      OH2            29.6676613709       30.7685005524        3.6795051574  W2        2647            0.0000000000
      7940      2647  TIP3      H1             29.0492713709       31.4431605524        3.9599751574  W2        2647            0.0000000000
      7941      2647  TIP3      H2             30.0117813709       31.0898905524        2.8461251574  W2        2647            0.0000000000
      7942      2648  TIP3      OH2            31.4497713709       31.1189705524      -10.4141348426  W2        2648            0.0000000000
      7943      2648  TIP3      H1             31.2692713709       30.9640905524      -11.3413048426  W2        2648            0.0000000000
      7944      2648  TIP3      H2             32.3998213709       31.2268405524      -10.3693448426  W2        2648            0.0000000000
      7945      2649  TIP3      OH2            30.0070313709       28.1235805524        4.7618151574  W2        2649            0.0000000000
      7946      2649  TIP3      H1             30.1571213709       27.3947105524        4.1597851574  W2        2649            0.0000000000
      7947      2649  TIP3      H2             30.0092713709       28.9007505524        4.2030351574  W2        2649            0.0000000000
      7948      2650  TIP3      OH2            30.4196013709       26.4931605524        2.2545551574  W2        2650            0.0000000000
      7949      2650  TIP3      H1             30.9553513709       26.9448305524        1.6024851574  W2        2650            0.0000000000
      7950      2650  TIP3      H2             29.5675613709       26.3851405524        1.8319651574  W2        2650            0.0000000000
      7951      2651  TIP3      OH2            32.0014413709       31.9327805524        2.4940751574  W2        2651            0.0000000000
      7952      2651  TIP3      H1             32.7519213709       31.7765305524        1.9208551574  W2        2651            0.0000000000
      7953      2651  TIP3      H2             31.6622713709       32.7844405524        2.2186251574  W2        2651            0.0000000000
      7954      2652  TIP3      OH2            28.4856613709       29.3219305524        6.6733751574  W2        2652            0.0000000000
      7955      2652  TIP3      H1             27.7185613709       28.7894105524        6.4631351574  W2        2652            0.0000000000
      7956      2652  TIP3      H2             29.1645613709       29.0119705524        6.0740051574  W2        2652            0.0000000000
      7957      2653  TIP3      OH2            31.2251513709       23.9497305524        2.6859151574  W2        2653            0.0000000000
      7958      2653  TIP3      H1             31.1271113709       24.8960505524        2.5805351574  W2        2653            0.0000000000
      7959      2653  TIP3      H2             30.4827713709       23.5771105524        2.2102651574  W2        2653            0.0000000000
      7960      2654  TIP3      OH2            32.4892013709       28.2712705524        6.2497551574  W2        2654            0.0000000000
      7961      2654  TIP3      H1             32.2537413709       28.0519405524        7.1512451574  W2        2654            0.0000000000
      7962      2654  TIP3      H2             31.7058913709       28.0643905524        5.7400051574  W2        2654            0.0000000000
      7963      2655  TIP3      OH2            26.6659413709       27.2423105524        6.3778451574  W2        2655            0.0000000000
      7964      2655  TIP3      H1             26.8776813709       26.5359205524        5.7675951574  W2        2655            0.0000000000
      7965      2655  TIP3      H2             26.5546913709       26.8049105524        7.2219651574  W2        2655            0.0000000000
      7966      2656  TIP3      OH2            31.4469613709       23.2434705524        5.3571951574  W2        2656            0.0000000000
      7967      2656  TIP3      H1             32.1588013709       22.6036905524        5.3431051574  W2        2656            0.0000000000
      7968      2656  TIP3      H2             31.3460013709       23.5103005524        4.4435051574  W2        2656            0.0000000000
      7969      2657  TIP3      OH2            31.8007113709       24.9263105524        7.4108251574  W2        2657            0.0000000000
      7970      2657  TIP3      H1             31.6689313709       24.4506905524        6.5906751574  W2        2657            0.0000000000
      7971      2657  TIP3      H2             31.2014513709       25.6706705524        7.3555351574  W2        2657            0.0000000000
      7972      2658  TIP3      OH2            24.1118413709       28.2653105524        5.5444151574  W2        2658            0.0000000000
      7973      2658  TIP3      H1             25.0313313709       28.1431405524        5.7807251574  W2        2658            0.0000000000
      7974      2658  TIP3      H2             23.6622913709       27.5152805524        5.9337651574  W2        2658            0.0000000000
      7975      2659  TIP3      OH2            25.3330913709       26.5774705524       -1.5642948426  W2        2659            0.0000000000
      7976      2659  TIP3      H1             25.7782513709       25.7857205524       -1.2623248426  W2        2659            0.0000000000
      7977      2659  TIP3      H2             25.7993913709       27.2939905524       -1.1337348426  W2        2659            0.0000000000
      7978      2660  TIP3      OH2            23.6371213709       29.5767705524       -0.4952748426  W2        2660            0.0000000000
      7979      2660  TIP3      H1             24.1291013709       29.3558205524       -1.2860748426  W2        2660            0.0000000000
      7980      2660  TIP3      H2             23.9992113709       30.4171105524       -0.2143248426  W2        2660            0.0000000000
      7981      2661  TIP3      OH2            23.9507713709       25.8346805524       -6.4410348426  W2        2661            0.0000000000
      7982      2661  TIP3      H1             23.0256113709       26.0433405524       -6.5704848426  W2        2661            0.0000000000
      7983      2661  TIP3      H2             24.4047613709       26.3187605524       -7.1308048426  W2        2661            0.0000000000
      7984      2662  TIP3      OH2            23.9143113709       24.5725805524        1.9032151574  W2        2662            0.0000000000
      7985      2662  TIP3      H1             23.2493613709       24.3266105524        2.5463051574  W2        2662            0.0000000000
      7986      2662  TIP3      H2             23.4714413709       25.1946205524        1.3260151574  W2        2662            0.0000000000
      7987      2663  TIP3      OH2            26.3906913709       24.0796405524       -4.2659848426  W2        2663            0.0000000000
      7988      2663  TIP3      H1             25.6136713709       23.8451305524       -4.7733948426  W2        2663            0.0000000000
      7989      2663  TIP3      H2             26.9210513709       23.2828505524       -4.2571848426  W2        2663            0.0000000000
      7990      2664  TIP3      OH2            25.2270313709       23.8774505524       -8.4623748426  W2        2664            0.0000000000
      7991      2664  TIP3      H1             25.6661013709       24.4885005524       -9.0540248426  W2        2664            0.0000000000
      7992      2664  TIP3      H2             24.5932713709       24.4158605524       -7.9883748426  W2        2664            0.0000000000
      7993      2665  TIP3      OH2            30.9699513709       24.0063505524       -4.4526748426  W2        2665            0.0000000000
      7994      2665  TIP3      H1             31.8442913709       24.3947805524       -4.4822448426  W2        2665            0.0000000000
      7995      2665  TIP3      H2             30.8340313709       23.7911305524       -3.5299548426  W2        2665            0.0000000000
      7996      2666  TIP3      OH2            27.0879413709       25.7936005524      -10.0199648426  W2        2666            0.0000000000
      7997      2666  TIP3      H1             27.5792813709       25.1638405524      -10.5474148426  W2        2666            0.0000000000
      7998      2666  TIP3      H2             27.7115713709       26.0895405524       -9.3568448426  W2        2666            0.0000000000
      7999      2667  TIP3      OH2            32.1139513709       26.0867505524       -7.5629148426  W2        2667            0.0000000000
      8000      2667  TIP3      H1             32.2920813709       25.4400705524       -6.8800548426  W2        2667            0.0000000000
      8001      2667  TIP3      H2             32.0605713709       26.9205205524       -7.0958048426  W2        2667            0.0000000000
      8002      2668  TIP3      OH2            26.3484913709       24.5938305524        5.2516351574  W2        2668            0.0000000000
      8003      2668  TIP3      H1             25.9823113709       23.8280905524        5.6941051574  W2        2668            0.0000000000
      8004      2668  TIP3      H2             27.2613413709       24.6228505524        5.5381451574  W2        2668            0.0000000000
      8005      2669  TIP3      OH2            28.3215713709       23.9442705524        6.7873451574  W2        2669            0.0000000000
      8006      2669  TIP3      H1             29.2199313709       23.6702905524        6.6026851574  W2        2669            0.0000000000
      8007      2669  TIP3      H2             27.9348813709       23.2018705524        7.2516051574  W2        2669            0.0000000000
      8008      2670  TIP3      OH2           -22.3238786291      -25.6306994476        9.0392951574  W2        2700            0.0000000000
      8009      2670  TIP3      H1            -21.6228886291      -25.6080094476        9.6906951574  W2        2700            0.0000000000
      8010      2670  TIP3      H2            -22.0215886291      -26.2587294476        8.3832251574  W2        2700            0.0000000000
      8011      2671  TIP3      OH2           -20.1010786291      -24.7165094476       10.6375051574  W2        2709            0.0000000000
      8012      2671  TIP3      H1            -19.5215286291      -24.5664794476       11.3843951574  W2        2709            0.0000000000
      8013      2671  TIP3      H2            -19.6870786291      -24.2457694476        9.9141451574  W2        2709            0.0000000000
      8014      2672  TIP3      OH2           -16.4022386291      -32.9664694476       10.4504751574  W2        2713            0.0000000000
      8015      2672  TIP3      H1            -17.3021686291      -32.8275694476       10.7455351574  W2        2713            0.0000000000
      8016      2672  TIP3      H2            -16.1503986291      -32.1350094476       10.0486451574  W2        2713            0.0000000000
      8017      2673  TIP3      OH2           -15.2130986291      -18.6002294476        8.8268651574  W2        2715            0.0000000000
      8018      2673  TIP3      H1            -15.1397486291      -17.6612094476        8.9973951574  W2        2715            0.0000000000
      8019      2673  TIP3      H2            -14.3075886291      -18.9053694476        8.7705951574  W2        2715            0.0000000000
      8020      2674  TIP3      OH2           -19.8006786291      -15.8691694476        9.4899751574  W2        2722            0.0000000000
      8021      2674  TIP3      H1            -19.4258386291      -16.6135594476        9.0192351574  W2        2722            0.0000000000
      8022      2674  TIP3      H2            -19.7963086291      -16.1391094476       10.4083051574  W2        2722            0.0000000000
      8023      2675  TIP3      OH2           -18.6237686291      -23.6836794476        8.2672951574  W2        2729            0.0000000000
      8024      2675  TIP3      H1            -18.5816886291      -23.9062894476        7.3372951574  W2        2729            0.0000000000
      8025      2675  TIP3      H2            -17.7745586291      -23.2849694476        8.4572851574  W2        2729            0.0000000000
      8026      2676  TIP3      OH2           -23.0510186291      -29.8078594476        8.9376251574  W2        2730            0.0000000000
      8027      2676  TIP3      H1            -23.3045386291      -29.7886994476        9.8604351574  W2        2730            0.0000000000
      8028      2676  TIP3      H2            -23.3078086291      -30.6793194476        8.6362451574  W2        2730            0.0000000000
      8029      2677  TIP3      OH2           -26.1687286291      -29.3622094476        8.0386651574  W2        2737            0.0000000000
      8030      2677  TIP3      H1            -26.5996586291      -29.8071994476        8.7684051574  W2        2737            0.0000000000
      8031      2677  TIP3      H2            -26.8868586291      -28.9905794476        7.5264151574  W2        2737            0.0000000000
      8032      2678  TIP3      OH2           -31.6521786291      -28.8740594476       10.5145751574  W2        2739            0.0000000000
      8033      2678  TIP3      H1            -31.1780086291      -28.2830694476        9.9296651574  W2        2739            0.0000000000
      8034      2678  TIP3      H2            -32.3695386291      -28.3437694476       10.8615851574  W2        2739            0.0000000000
      8035      2679  TIP3      OH2           -27.5505386291      -26.5849194476        9.4211051574  W2        2745            0.0000000000
      8036      2679  TIP3      H1            -28.0930286291      -26.9645394476        8.7298651574  W2        2745            0.0000000000
      8037      2679  TIP3      H2            -26.7170486291      -26.3904494476        8.9925151574  W2        2745            0.0000000000
      8038      2680  TIP3      OH2           -20.3175786291      -29.2053594476        9.5561751574  W2        2753            0.0000000000
      8039      2680  TIP3      H1            -21.2561586291      -29.0937994476        9.4050551574  W2        2753            0.0000000000
      8040      2680  TIP3      H2            -20.0203686291      -28.3486694476        9.8627451574  W2        2753            0.0000000000
      8041      2681  TIP3      OH2           -22.0898486291      -20.5609194476       10.3823751574  W2        2757            0.0000000000
      8042      2681  TIP3      H1            -22.3850086291      -19.7341294476       10.7638551574  W2        2757            0.0000000000
      8043      2681  TIP3      H2            -22.7928486291      -21.1802294476       10.5785151574  W2        2757            0.0000000000
      8044      2682  TIP3      OH2           -30.9607186291      -24.3441194476        9.1180951574  W2        2766            0.0000000000
      8045      2682  TIP3      H1            -30.3447286291      -23.7173994476        9.4975751574  W2        2766            0.0000000000
      8046      2682  TIP3      H2            -31.8224586291      -24.0281394476        9.3897451574  W2        2766            0.0000000000
      8047      2683  TIP3      OH2           -19.0266286291      -20.3660594476        9.1968551574  W2        2771            0.0000000000
      8048      2683  TIP3      H1            -18.6733186291      -20.7460794476       10.0012051574  W2        2771            0.0000000000
      8049      2683  TIP3      H2            -19.9752786291      -20.4595794476        9.2837851574  W2        2771            0.0000000000
      8050      2684  TIP3      OH2           -14.5231886291      -15.8868094476        9.3978751574  W2        2773            0.0000000000
      8051      2684  TIP3      H1            -13.7793986291      -15.3007594476        9.2580351574  W2        2773            0.0000000000
      8052      2684  TIP3      H2            -15.2173786291      -15.3182294476        9.7311151574  W2        2773            0.0000000000
      8053      2685  TIP3      OH2           -24.9358486291      -19.2544494476        7.6438551574  W2        2777            0.0000000000
      8054      2685  TIP3      H1            -24.6968686291      -20.0026394476        7.0967451574  W2        2777            0.0000000000
      8055      2685  TIP3      H2            -25.2047186291      -19.6422794476        8.4766351574  W2        2777            0.0000000000
      8056      2686  TIP3      OH2           -25.9987886291      -19.6840694476       10.1001151574  W2        2778            0.0000000000
      8057      2686  TIP3      H1            -25.8519886291      -20.2040894476       10.8902051574  W2        2778            0.0000000000
      8058      2686  TIP3      H2            -26.0016186291      -18.7773094476       10.4067051574  W2        2778            0.0000000000
      8059      2687  TIP3      OH2           -29.5456786291      -22.4317394476       10.6106551574  W2        2779            0.0000000000
      8060      2687  TIP3      H1            -30.2317486291      -22.0794894476       11.1776251574  W2        2779            0.0000000000
      8061      2687  TIP3      H2            -29.0228886291      -21.6687794476       10.3640851574  W2        2779            0.0000000000
      8062      2688  TIP3      OH2           -23.2610686291      -17.9867094476       10.8495351574  W2        2782            0.0000000000
      8063      2688  TIP3      H1            -24.0774586291      -17.4897394476       10.9019651574  W2        2782            0.0000000000
      8064      2688  TIP3      H2            -22.7314386291      -17.5113594476       10.2094151574  W2        2782            0.0000000000
      8065      2689  TIP3      OH2           -25.9227586291      -16.9429894476       10.8312251574  W2        2786            0.0000000000
      8066      2689  TIP3      H1            -25.7618886291      -16.1432394476       10.3304851574  W2        2786            0.0000000000
      8067      2689  TIP3      H2            -26.1199786291      -16.6363894476       11.7162851574  W2        2786            0.0000000000
      8068      2690  TIP3      OH2           -27.1883186291      -30.2450694476       10.4469851574  W2        2787            0.0000000000
      8069      2690  TIP3      H1            -27.2718386291      -29.3567594476       10.7936251574  W2        2787            0.0000000000
      8070      2690  TIP3      H2            -26.2982886291      -30.5103994476       10.6786651574  W2        2787            0.0000000000
      8071      2691  TIP3      OH2           -28.9297886291      -19.8178494476        9.5074351574  W2        2790            0.0000000000
      8072      2691  TIP3      H1            -28.3376386291      -19.1183694476        9.7836751574  W2        2790            0.0000000000
      8073      2691  TIP3      H2            -28.4704886291      -20.2508994476        8.7878951574  W2        2790            0.0000000000
      8074      2692  TIP3      OH2           -30.6138686291      -27.1535494476        8.6233751574  W2        2791            0.0000000000
      8075      2692  TIP3      H1            -30.6586086291      -26.2142394476        8.8020751574  W2        2791            0.0000000000
      8076      2692  TIP3      H2            -31.5015486291      -27.3890594476        8.3535851574  W2        2791            0.0000000000
      8077      2693  TIP3      OH2           -22.8976686291      -17.3913094476        7.7824551574  W2        2797            0.0000000000
      8078      2693  TIP3      H1            -23.5415686291      -18.0224494476        8.1038251574  W2        2797            0.0000000000
      8079      2693  TIP3      H2            -22.1358386291      -17.9225094476        7.5508051574  W2        2797            0.0000000000
      8080      2694  TIP3      OH2           -18.2933786291      -17.5743194476        8.0162551574  W2        2799            0.0000000000
      8081      2694  TIP3      H1            -18.0103386291      -18.3687994476        8.4689451574  W2        2799            0.0000000000
      8082      2694  TIP3      H2            -17.5535886291      -17.3412194476        7.4553651574  W2        2799            0.0000000000
      8083      2695  TIP3      OH2           -27.3386486291      -21.6648294476        7.8737451574  W2        2801            0.0000000000
      8084      2695  TIP3      H1            -27.2742386291      -22.4588694476        8.4043851574  W2        2801            0.0000000000
      8085      2695  TIP3      H2            -26.6857286291      -21.7835494476        7.1839451574  W2        2801            0.0000000000
      8086      2696  TIP3      OH2           -21.9863086291      -20.6176594476        7.6095451574  W2        2803            0.0000000000
      8087      2696  TIP3      H1            -22.2548986291      -20.4374494476        8.5104351574  W2        2803            0.0000000000
      8088      2696  TIP3      H2            -22.1927486291      -21.5430394476        7.4781251574  W2        2803            0.0000000000
      8089      2697  TIP3      OH2           -26.1892686291      -23.6922094476       10.1795451574  W2        2806            0.0000000000
      8090      2697  TIP3      H1            -26.6490686291      -24.1763794476       10.8653951574  W2        2806            0.0000000000
      8091      2697  TIP3      H2            -25.9343986291      -24.3606694476        9.5435951574  W2        2806            0.0000000000
      8092      2698  TIP3      OH2           -25.1182286291      -25.4490294476        8.4418651574  W2        2808            0.0000000000
      8093      2698  TIP3      H1            -25.2987286291      -25.6039094476        7.5146951574  W2        2808            0.0000000000
      8094      2698  TIP3      H2            -24.1681786291      -25.3411594476        8.4866551574  W2        2808            0.0000000000
      8095      2699  TIP3      OH2           -15.7283986291      -23.0946094476        7.8876751574  W2        2810            0.0000000000
      8096      2699  TIP3      H1            -16.0019186291      -23.5190594476        7.0745051574  W2        2810            0.0000000000
      8097      2699  TIP3      H2            -15.6889886291      -22.1631594476        7.6707151574  W2        2810            0.0000000000
      8098      2700  TIP3      OH2           -25.2210586291      -14.7586594476        9.4432251574  W2        2824            0.0000000000
      8099      2700  TIP3      H1            -24.2879886291      -14.6007894476        9.5870651574  W2        2824            0.0000000000
      8100      2700  TIP3      H2            -25.4851786291      -14.0833594476        8.8183751574  W2        2824            0.0000000000
      8101      2701  TIP3      OH2           -31.6525686291      -20.1222794476        8.9260351574  W2        2825            0.0000000000
      8102      2701  TIP3      H1            -30.7386486291      -20.0433894476        9.1994251574  W2        2825            0.0000000000
      8103      2701  TIP3      H2            -31.6452586291      -20.8093194476        8.2595951574  W2        2825            0.0000000000
      8104      2702  TIP3      OH2           -14.6072486291      -24.2712094476       10.0774151574  W2        2835            0.0000000000
      8105      2702  TIP3      H1            -15.1291386291      -23.9147994476        9.3585051574  W2        2835            0.0000000000
      8106      2702  TIP3      H2            -14.6403286291      -23.5964294476       10.7555051574  W2        2835            0.0000000000
      8107      2703  TIP3      OH2           -16.2583486291      -27.0316494476        8.6281251574  W2        2836            0.0000000000
      8108      2703  TIP3      H1            -16.1619086291      -26.3649494476        7.9480951574  W2        2836            0.0000000000
      8109      2703  TIP3      H2            -16.3983886291      -27.8470194476        8.1466751574  W2        2836            0.0000000000
      8110      2704  TIP3      OH2           -17.0109686291      -29.6236694476        7.7456751574  W2        2841            0.0000000000
      8111      2704  TIP3      H1            -16.4003886291      -29.9949894476        8.3824951574  W2        2841            0.0000000000
      8112      2704  TIP3      H2            -17.8478186291      -30.0449794476        7.9416751574  W2        2841            0.0000000000
      8113      2705  TIP3      OH2           -14.8982986291      -30.7380894476        9.2878951574  W2        2851            0.0000000000
      8114      2705  TIP3      H1            -14.4860386291      -31.4595194476        8.8126951574  W2        2851            0.0000000000
      8115      2705  TIP3      H2            -14.2166486291      -30.0686294476        9.3463251574  W2        2851            0.0000000000
      8116      2706  TIP3      OH2           -31.3409686291      -32.6905494476       10.3936251574  W2        2872            0.0000000000
      8117      2706  TIP3      H1            -30.9018986291      -32.0794994476        9.8019751574  W2        2872            0.0000000000
      8118      2706  TIP3      H2            -31.9747286291      -32.1521394476       10.8676251574  W2        2872            0.0000000000
      8119      2707  TIP3      OH2           -29.4800586291      -30.7743994476        8.8360351574  W2        2877            0.0000000000
      8120      2707  TIP3      H1            -28.9887186291      -31.4041594476        8.3085851574  W2        2877            0.0000000000
      8121      2707  TIP3      H2            -28.8564286291      -30.4784594476        9.4991551574  W2        2877            0.0000000000
      8122      2708  TIP3      OH2           -22.5756686291      -15.5328394476        9.6887551574  W2        2879            0.0000000000
      8123      2708  TIP3      H1            -21.7096486291      -15.1660994476        9.5105751574  W2        2879            0.0000000000
      8124      2708  TIP3      H2            -22.8223886291      -15.9720394476        8.8748351574  W2        2879            0.0000000000
      8125      2709  TIP3      OH2           -29.6218986291      -15.8222494476        8.3163451574  W2        2883            0.0000000000
      8126      2709  TIP3      H1            -29.8894386291      -15.5359594476        9.1896551574  W2        2883            0.0000000000
      8127      2709  TIP3      H2            -28.8506386291      -16.3683294476        8.4685951574  W2        2883            0.0000000000
      8128      2710  TIP3      OH2            -3.4678786291      -25.6306994476        9.0392951574  W2        2916            0.0000000000
      8129      2710  TIP3      H1             -2.7668886291      -25.6080094476        9.6906951574  W2        2916            0.0000000000
      8130      2710  TIP3      H2             -3.1655886291      -26.2587294476        8.3832251574  W2        2916            0.0000000000
      8131      2711  TIP3      OH2            -1.2450786291      -24.7165094476       10.6375051574  W2        2925            0.0000000000
      8132      2711  TIP3      H1             -0.6655286291      -24.5664794476       11.3843951574  W2        2925            0.0000000000
      8133      2711  TIP3      H2             -0.8310786291      -24.2457694476        9.9141451574  W2        2925            0.0000000000
      8134      2712  TIP3      OH2             2.4537613709      -32.9664694476       10.4504751574  W2        2929            0.0000000000
      8135      2712  TIP3      H1              1.5538313709      -32.8275694476       10.7455351574  W2        2929            0.0000000000
      8136      2712  TIP3      H2              2.7056013709      -32.1350094476       10.0486451574  W2        2929            0.0000000000
      8137      2713  TIP3      OH2             3.6429013709      -18.6002294476        8.8268651574  W2        2931            0.0000000000
      8138      2713  TIP3      H1              3.7162513709      -17.6612094476        8.9973951574  W2        2931            0.0000000000
      8139      2713  TIP3      H2              4.5484113709      -18.9053694476        8.7705951574  W2        2931            0.0000000000
      8140      2714  TIP3      OH2            -0.9446786291      -15.8691694476        9.4899751574  W2        2938            0.0000000000
      8141      2714  TIP3      H1             -0.5698386291      -16.6135594476        9.0192351574  W2        2938            0.0000000000
      8142      2714  TIP3      H2             -0.9403086291      -16.1391094476       10.4083051574  W2        2938            0.0000000000
      8143      2715  TIP3      OH2             0.2322313709      -23.6836794476        8.2672951574  W2        2945            0.0000000000
      8144      2715  TIP3      H1              0.2743113709      -23.9062894476        7.3372951574  W2        2945            0.0000000000
      8145      2715  TIP3      H2              1.0814413709      -23.2849694476        8.4572851574  W2        2945            0.0000000000
      8146      2716  TIP3      OH2            -4.1950186291      -29.8078594476        8.9376251574  W2        2946            0.0000000000
      8147      2716  TIP3      H1             -4.4485386291      -29.7886994476        9.8604351574  W2        2946            0.0000000000
      8148      2716  TIP3      H2             -4.4518086291      -30.6793194476        8.6362451574  W2        2946            0.0000000000
      8149      2717  TIP3      OH2            -7.3127286291      -29.3622094476        8.0386651574  W2        2953            0.0000000000
      8150      2717  TIP3      H1             -7.7436586291      -29.8071994476        8.7684051574  W2        2953            0.0000000000
      8151      2717  TIP3      H2             -8.0308586291      -28.9905794476        7.5264151574  W2        2953            0.0000000000
      8152      2718  TIP3      OH2           -12.7961786291      -28.8740594476       10.5145751574  W2        2955            0.0000000000
      8153      2718  TIP3      H1            -12.3220086291      -28.2830694476        9.9296651574  W2        2955            0.0000000000
      8154      2718  TIP3      H2            -13.5135386291      -28.3437694476       10.8615851574  W2        2955            0.0000000000
      8155      2719  TIP3      OH2            -8.6945386291      -26.5849194476        9.4211051574  W2        2961            0.0000000000
      8156      2719  TIP3      H1             -9.2370286291      -26.9645394476        8.7298651574  W2        2961            0.0000000000
      8157      2719  TIP3      H2             -7.8610486291      -26.3904494476        8.9925151574  W2        2961            0.0000000000
      8158      2720  TIP3      OH2            -1.4615786291      -29.2053594476        9.5561751574  W2        2969            0.0000000000
      8159      2720  TIP3      H1             -2.4001586291      -29.0937994476        9.4050551574  W2        2969            0.0000000000
      8160      2720  TIP3      H2             -1.1643686291      -28.3486694476        9.8627451574  W2        2969            0.0000000000
      8161      2721  TIP3      OH2            -3.2338486291      -20.5609194476       10.3823751574  W2        2973            0.0000000000
      8162      2721  TIP3      H1             -3.5290086291      -19.7341294476       10.7638551574  W2        2973            0.0000000000
      8163      2721  TIP3      H2             -3.9368486291      -21.1802294476       10.5785151574  W2        2973            0.0000000000
      8164      2722  TIP3      OH2           -12.1047186291      -24.3441194476        9.1180951574  W2        2982            0.0000000000
      8165      2722  TIP3      H1            -11.4887286291      -23.7173994476        9.4975751574  W2        2982            0.0000000000
      8166      2722  TIP3      H2            -12.9664586291      -24.0281394476        9.3897451574  W2        2982            0.0000000000
      8167      2723  TIP3      OH2            -0.1706286291      -20.3660594476        9.1968551574  W2        2987            0.0000000000
      8168      2723  TIP3      H1              0.1826813709      -20.7460794476       10.0012051574  W2        2987            0.0000000000
      8169      2723  TIP3      H2             -1.1192786291      -20.4595794476        9.2837851574  W2        2987            0.0000000000
      8170      2724  TIP3      OH2             4.3328113709      -15.8868094476        9.3978751574  W2        2989            0.0000000000
      8171      2724  TIP3      H1              5.0766013709      -15.3007594476        9.2580351574  W2        2989            0.0000000000
      8172      2724  TIP3      H2              3.6386213709      -15.3182294476        9.7311151574  W2        2989            0.0000000000
      8173      2725  TIP3      OH2            -6.0798486291      -19.2544494476        7.6438551574  W2        2993            0.0000000000
      8174      2725  TIP3      H1             -5.8408686291      -20.0026394476        7.0967451574  W2        2993            0.0000000000
      8175      2725  TIP3      H2             -6.3487186291      -19.6422794476        8.4766351574  W2        2993            0.0000000000
      8176      2726  TIP3      OH2            -7.1427886291      -19.6840694476       10.1001151574  W2        2994            0.0000000000
      8177      2726  TIP3      H1             -6.9959886291      -20.2040894476       10.8902051574  W2        2994            0.0000000000
      8178      2726  TIP3      H2             -7.1456186291      -18.7773094476       10.4067051574  W2        2994            0.0000000000
      8179      2727  TIP3      OH2           -10.6896786291      -22.4317394476       10.6106551574  W2        2995            0.0000000000
      8180      2727  TIP3      H1            -11.3757486291      -22.0794894476       11.1776251574  W2        2995            0.0000000000
      8181      2727  TIP3      H2            -10.1668886291      -21.6687794476       10.3640851574  W2        2995            0.0000000000
      8182      2728  TIP3      OH2            -4.4050686291      -17.9867094476       10.8495351574  W2        2998            0.0000000000
      8183      2728  TIP3      H1             -5.2214586291      -17.4897394476       10.9019651574  W2        2998            0.0000000000
      8184      2728  TIP3      H2             -3.8754386291      -17.5113594476       10.2094151574  W2        2998            0.0000000000
      8185      2729  TIP3      OH2            -7.0667586291      -16.9429894476       10.8312251574  W2        3002            0.0000000000
      8186      2729  TIP3      H1             -6.9058886291      -16.1432394476       10.3304851574  W2        3002            0.0000000000
      8187      2729  TIP3      H2             -7.2639786291      -16.6363894476       11.7162851574  W2        3002            0.0000000000
      8188      2730  TIP3      OH2            -8.3323186291      -30.2450694476       10.4469851574  W2        3003            0.0000000000
      8189      2730  TIP3      H1             -8.4158386291      -29.3567594476       10.7936251574  W2        3003            0.0000000000
      8190      2730  TIP3      H2             -7.4422886291      -30.5103994476       10.6786651574  W2        3003            0.0000000000
      8191      2731  TIP3      OH2           -10.0737886291      -19.8178494476        9.5074351574  W2        3006            0.0000000000
      8192      2731  TIP3      H1             -9.4816386291      -19.1183694476        9.7836751574  W2        3006            0.0000000000
      8193      2731  TIP3      H2             -9.6144886291      -20.2508994476        8.7878951574  W2        3006            0.0000000000
      8194      2732  TIP3      OH2           -11.7578686291      -27.1535494476        8.6233751574  W2        3007            0.0000000000
      8195      2732  TIP3      H1            -11.8026086291      -26.2142394476        8.8020751574  W2        3007            0.0000000000
      8196      2732  TIP3      H2            -12.6455486291      -27.3890594476        8.3535851574  W2        3007            0.0000000000
      8197      2733  TIP3      OH2            -4.0416686291      -17.3913094476        7.7824551574  W2        3013            0.0000000000
      8198      2733  TIP3      H1             -4.6855686291      -18.0224494476        8.1038251574  W2        3013            0.0000000000
      8199      2733  TIP3      H2             -3.2798386291      -17.9225094476        7.5508051574  W2        3013            0.0000000000
      8200      2734  TIP3      OH2             0.5626213709      -17.5743194476        8.0162551574  W2        3015            0.0000000000
      8201      2734  TIP3      H1              0.8456613709      -18.3687994476        8.4689451574  W2        3015            0.0000000000
      8202      2734  TIP3      H2              1.3024113709      -17.3412194476        7.4553651574  W2        3015            0.0000000000
      8203      2735  TIP3      OH2            -8.4826486291      -21.6648294476        7.8737451574  W2        3017            0.0000000000
      8204      2735  TIP3      H1             -8.4182386291      -22.4588694476        8.4043851574  W2        3017            0.0000000000
      8205      2735  TIP3      H2             -7.8297286291      -21.7835494476        7.1839451574  W2        3017            0.0000000000
      8206      2736  TIP3      OH2            -3.1303086291      -20.6176594476        7.6095451574  W2        3019            0.0000000000
      8207      2736  TIP3      H1             -3.3988986291      -20.4374494476        8.5104351574  W2        3019            0.0000000000
      8208      2736  TIP3      H2             -3.3367486291      -21.5430394476        7.4781251574  W2        3019            0.0000000000
      8209      2737  TIP3      OH2            -7.3332686291      -23.6922094476       10.1795451574  W2        3022            0.0000000000
      8210      2737  TIP3      H1             -7.7930686291      -24.1763794476       10.8653951574  W2        3022            0.0000000000
      8211      2737  TIP3      H2             -7.0783986291      -24.3606694476        9.5435951574  W2        3022            0.0000000000
      8212      2738  TIP3      OH2            -6.2622286291      -25.4490294476        8.4418651574  W2        3024            0.0000000000
      8213      2738  TIP3      H1             -6.4427286291      -25.6039094476        7.5146951574  W2        3024            0.0000000000
      8214      2738  TIP3      H2             -5.3121786291      -25.3411594476        8.4866551574  W2        3024            0.0000000000
      8215      2739  TIP3      OH2             3.1276013709      -23.0946094476        7.8876751574  W2        3026            0.0000000000
      8216      2739  TIP3      H1              2.8540813709      -23.5190594476        7.0745051574  W2        3026            0.0000000000
      8217      2739  TIP3      H2              3.1670113709      -22.1631594476        7.6707151574  W2        3026            0.0000000000
      8218      2740  TIP3      OH2            -6.3650586291      -14.7586594476        9.4432251574  W2        3040            0.0000000000
      8219      2740  TIP3      H1             -5.4319886291      -14.6007894476        9.5870651574  W2        3040            0.0000000000
      8220      2740  TIP3      H2             -6.6291786291      -14.0833594476        8.8183751574  W2        3040            0.0000000000
      8221      2741  TIP3      OH2           -12.7965686291      -20.1222794476        8.9260351574  W2        3041            0.0000000000
      8222      2741  TIP3      H1            -11.8826486291      -20.0433894476        9.1994251574  W2        3041            0.0000000000
      8223      2741  TIP3      H2            -12.7892586291      -20.8093194476        8.2595951574  W2        3041            0.0000000000
      8224      2742  TIP3      OH2             4.2487513709      -24.2712094476       10.0774151574  W2        3051            0.0000000000
      8225      2742  TIP3      H1              3.7268613709      -23.9147994476        9.3585051574  W2        3051            0.0000000000
      8226      2742  TIP3      H2              4.2156713709      -23.5964294476       10.7555051574  W2        3051            0.0000000000
      8227      2743  TIP3      OH2             2.5976513709      -27.0316494476        8.6281251574  W2        3052            0.0000000000
      8228      2743  TIP3      H1              2.6940913709      -26.3649494476        7.9480951574  W2        3052            0.0000000000
      8229      2743  TIP3      H2              2.4576113709      -27.8470194476        8.1466751574  W2        3052            0.0000000000
      8230      2744  TIP3      OH2             1.8450313709      -29.6236694476        7.7456751574  W2        3057            0.0000000000
      8231      2744  TIP3      H1              2.4556113709      -29.9949894476        8.3824951574  W2        3057            0.0000000000
      8232      2744  TIP3      H2              1.0081813709      -30.0449794476        7.9416751574  W2        3057            0.0000000000
      8233      2745  TIP3      OH2             3.9577013709      -30.7380894476        9.2878951574  W2        3067            0.0000000000
      8234      2745  TIP3      H1              4.3699613709      -31.4595194476        8.8126951574  W2        3067            0.0000000000
      8235      2745  TIP3      H2              4.6393513709      -30.0686294476        9.3463251574  W2        3067            0.0000000000
      8236      2746  TIP3      OH2           -12.4849686291      -32.6905494476       10.3936251574  W2        3088            0.0000000000
      8237      2746  TIP3      H1            -12.0458986291      -32.0794994476        9.8019751574  W2        3088            0.0000000000
      8238      2746  TIP3      H2            -13.1187286291      -32.1521394476       10.8676251574  W2        3088            0.0000000000
      8239      2747  TIP3      OH2           -10.6240586291      -30.7743994476        8.8360351574  W2        3093            0.0000000000
      8240      2747  TIP3      H1            -10.1327186291      -31.4041594476        8.3085851574  W2        3093            0.0000000000
      8241      2747  TIP3      H2            -10.0004286291      -30.4784594476        9.4991551574  W2        3093            0.0000000000
      8242      2748  TIP3      OH2            -3.7196686291      -15.5328394476        9.6887551574  W2        3095            0.0000000000
      8243      2748  TIP3      H1             -2.8536486291      -15.1660994476        9.5105751574  W2        3095            0.0000000000
      8244      2748  TIP3      H2             -3.9663886291      -15.9720394476        8.8748351574  W2        3095            0.0000000000
      8245      2749  TIP3      OH2           -10.7658986291      -15.8222494476        8.3163451574  W2        3099            0.0000000000
      8246      2749  TIP3      H1            -11.0334386291      -15.5359594476        9.1896551574  W2        3099            0.0000000000
      8247      2749  TIP3      H2             -9.9946386291      -16.3683294476        8.4685951574  W2        3099            0.0000000000
      8248      2750  TIP3      OH2            15.3881213709      -25.6306994476        9.0392951574  W2        3132            0.0000000000
      8249      2750  TIP3      H1             16.0891113709      -25.6080094476        9.6906951574  W2        3132            0.0000000000
      8250      2750  TIP3      H2             15.6904113709      -26.2587294476        8.3832251574  W2        3132            0.0000000000
      8251      2751  TIP3      OH2            17.6109213709      -24.7165094476       10.6375051574  W2        3141            0.0000000000
      8252      2751  TIP3      H1             18.1904713709      -24.5664794476       11.3843951574  W2        3141            0.0000000000
      8253      2751  TIP3      H2             18.0249213709      -24.2457694476        9.9141451574  W2        3141            0.0000000000
      8254      2752  TIP3      OH2            21.3097613709      -32.9664694476       10.4504751574  W2        3145            0.0000000000
      8255      2752  TIP3      H1             20.4098313709      -32.8275694476       10.7455351574  W2        3145            0.0000000000
      8256      2752  TIP3      H2             21.5616013709      -32.1350094476       10.0486451574  W2        3145            0.0000000000
      8257      2753  TIP3      OH2            22.4989013709      -18.6002294476        8.8268651574  W2        3147            0.0000000000
      8258      2753  TIP3      H1             22.5722513709      -17.6612094476        8.9973951574  W2        3147            0.0000000000
      8259      2753  TIP3      H2             23.4044113709      -18.9053694476        8.7705951574  W2        3147            0.0000000000
      8260      2754  TIP3      OH2            17.9113213709      -15.8691694476        9.4899751574  W2        3154            0.0000000000
      8261      2754  TIP3      H1             18.2861613709      -16.6135594476        9.0192351574  W2        3154            0.0000000000
      8262      2754  TIP3      H2             17.9156913709      -16.1391094476       10.4083051574  W2        3154            0.0000000000
      8263      2755  TIP3      OH2            19.0882313709      -23.6836794476        8.2672951574  W2        3161            0.0000000000
      8264      2755  TIP3      H1             19.1303113709      -23.9062894476        7.3372951574  W2        3161            0.0000000000
      8265      2755  TIP3      H2             19.9374413709      -23.2849694476        8.4572851574  W2        3161            0.0000000000
      8266      2756  TIP3      OH2            14.6609813709      -29.8078594476        8.9376251574  W2        3162            0.0000000000
      8267      2756  TIP3      H1             14.4074613709      -29.7886994476        9.8604351574  W2        3162            0.0000000000
      8268      2756  TIP3      H2             14.4041913709      -30.6793194476        8.6362451574  W2        3162            0.0000000000
      8269      2757  TIP3      OH2            11.5432713709      -29.3622094476        8.0386651574  W2        3169            0.0000000000
      8270      2757  TIP3      H1             11.1123413709      -29.8071994476        8.7684051574  W2        3169            0.0000000000
      8271      2757  TIP3      H2             10.8251413709      -28.9905794476        7.5264151574  W2        3169            0.0000000000
      8272      2758  TIP3      OH2             6.0598213709      -28.8740594476       10.5145751574  W2        3171            0.0000000000
      8273      2758  TIP3      H1              6.5339913709      -28.2830694476        9.9296651574  W2        3171            0.0000000000
      8274      2758  TIP3      H2              5.3424613709      -28.3437694476       10.8615851574  W2        3171            0.0000000000
      8275      2759  TIP3      OH2            10.1614613709      -26.5849194476        9.4211051574  W2        3177            0.0000000000
      8276      2759  TIP3      H1              9.6189713709      -26.9645394476        8.7298651574  W2        3177            0.0000000000
      8277      2759  TIP3      H2             10.9949513709      -26.3904494476        8.9925151574  W2        3177            0.0000000000
      8278      2760  TIP3      OH2            17.3944213709      -29.2053594476        9.5561751574  W2        3185            0.0000000000
      8279      2760  TIP3      H1             16.4558413709      -29.0937994476        9.4050551574  W2        3185            0.0000000000
      8280      2760  TIP3      H2             17.6916313709      -28.3486694476        9.8627451574  W2        3185            0.0000000000
      8281      2761  TIP3      OH2            15.6221513709      -20.5609194476       10.3823751574  W2        3189            0.0000000000
      8282      2761  TIP3      H1             15.3269913709      -19.7341294476       10.7638551574  W2        3189            0.0000000000
      8283      2761  TIP3      H2             14.9191513709      -21.1802294476       10.5785151574  W2        3189            0.0000000000
      8284      2762  TIP3      OH2             6.7512813709      -24.3441194476        9.1180951574  W2        3198            0.0000000000
      8285      2762  TIP3      H1              7.3672713709      -23.7173994476        9.4975751574  W2        3198            0.0000000000
      8286      2762  TIP3      H2              5.8895413709      -24.0281394476        9.3897451574  W2        3198            0.0000000000
      8287      2763  TIP3      OH2            18.6853713709      -20.3660594476        9.1968551574  W2        3203            0.0000000000
      8288      2763  TIP3      H1             19.0386813709      -20.7460794476       10.0012051574  W2        3203            0.0000000000
      8289      2763  TIP3      H2             17.7367213709      -20.4595794476        9.2837851574  W2        3203            0.0000000000
      8290      2764  TIP3      OH2            23.1888113709      -15.8868094476        9.3978751574  W2        3205            0.0000000000
      8291      2764  TIP3      H1             23.9326013709      -15.3007594476        9.2580351574  W2        3205            0.0000000000
      8292      2764  TIP3      H2             22.4946213709      -15.3182294476        9.7311151574  W2        3205            0.0000000000
      8293      2765  TIP3      OH2            12.7761513709      -19.2544494476        7.6438551574  W2        3209            0.0000000000
      8294      2765  TIP3      H1             13.0151313709      -20.0026394476        7.0967451574  W2        3209            0.0000000000
      8295      2765  TIP3      H2             12.5072813709      -19.6422794476        8.4766351574  W2        3209            0.0000000000
      8296      2766  TIP3      OH2            11.7132113709      -19.6840694476       10.1001151574  W2        3210            0.0000000000
      8297      2766  TIP3      H1             11.8600113709      -20.2040894476       10.8902051574  W2        3210            0.0000000000
      8298      2766  TIP3      H2             11.7103813709      -18.7773094476       10.4067051574  W2        3210            0.0000000000
      8299      2767  TIP3      OH2             8.1663213709      -22.4317394476       10.6106551574  W2        3211            0.0000000000
      8300      2767  TIP3      H1              7.4802513709      -22.0794894476       11.1776251574  W2        3211            0.0000000000
      8301      2767  TIP3      H2              8.6891113709      -21.6687794476       10.3640851574  W2        3211            0.0000000000
      8302      2768  TIP3      OH2            14.4509313709      -17.9867094476       10.8495351574  W2        3214            0.0000000000
      8303      2768  TIP3      H1             13.6345413709      -17.4897394476       10.9019651574  W2        3214            0.0000000000
      8304      2768  TIP3      H2             14.9805613709      -17.5113594476       10.2094151574  W2        3214            0.0000000000
      8305      2769  TIP3      OH2            11.7892413709      -16.9429894476       10.8312251574  W2        3218            0.0000000000
      8306      2769  TIP3      H1             11.9501113709      -16.1432394476       10.3304851574  W2        3218            0.0000000000
      8307      2769  TIP3      H2             11.5920213709      -16.6363894476       11.7162851574  W2        3218            0.0000000000
      8308      2770  TIP3      OH2            10.5236813709      -30.2450694476       10.4469851574  W2        3219            0.0000000000
      8309      2770  TIP3      H1             10.4401613709      -29.3567594476       10.7936251574  W2        3219            0.0000000000
      8310      2770  TIP3      H2             11.4137113709      -30.5103994476       10.6786651574  W2        3219            0.0000000000
      8311      2771  TIP3      OH2             8.7822113709      -19.8178494476        9.5074351574  W2        3222            0.0000000000
      8312      2771  TIP3      H1              9.3743613709      -19.1183694476        9.7836751574  W2        3222            0.0000000000
      8313      2771  TIP3      H2              9.2415113709      -20.2508994476        8.7878951574  W2        3222            0.0000000000
      8314      2772  TIP3      OH2             7.0981313709      -27.1535494476        8.6233751574  W2        3223            0.0000000000
      8315      2772  TIP3      H1              7.0533913709      -26.2142394476        8.8020751574  W2        3223            0.0000000000
      8316      2772  TIP3      H2              6.2104513709      -27.3890594476        8.3535851574  W2        3223            0.0000000000
      8317      2773  TIP3      OH2            14.8143313709      -17.3913094476        7.7824551574  W2        3229            0.0000000000
      8318      2773  TIP3      H1             14.1704313709      -18.0224494476        8.1038251574  W2        3229            0.0000000000
      8319      2773  TIP3      H2             15.5761613709      -17.9225094476        7.5508051574  W2        3229            0.0000000000
      8320      2774  TIP3      OH2            19.4186213709      -17.5743194476        8.0162551574  W2        3231            0.0000000000
      8321      2774  TIP3      H1             19.7016613709      -18.3687994476        8.4689451574  W2        3231            0.0000000000
      8322      2774  TIP3      H2             20.1584113709      -17.3412194476        7.4553651574  W2        3231            0.0000000000
      8323      2775  TIP3      OH2            10.3733513709      -21.6648294476        7.8737451574  W2        3233            0.0000000000
      8324      2775  TIP3      H1             10.4377613709      -22.4588694476        8.4043851574  W2        3233            0.0000000000
      8325      2775  TIP3      H2             11.0262713709      -21.7835494476        7.1839451574  W2        3233            0.0000000000
      8326      2776  TIP3      OH2            15.7256913709      -20.6176594476        7.6095451574  W2        3235            0.0000000000
      8327      2776  TIP3      H1             15.4571013709      -20.4374494476        8.5104351574  W2        3235            0.0000000000
      8328      2776  TIP3      H2             15.5192513709      -21.5430394476        7.4781251574  W2        3235            0.0000000000
      8329      2777  TIP3      OH2            11.5227313709      -23.6922094476       10.1795451574  W2        3238            0.0000000000
      8330      2777  TIP3      H1             11.0629313709      -24.1763794476       10.8653951574  W2        3238            0.0000000000
      8331      2777  TIP3      H2             11.7776013709      -24.3606694476        9.5435951574  W2        3238            0.0000000000
      8332      2778  TIP3      OH2            12.5937713709      -25.4490294476        8.4418651574  W2        3240            0.0000000000
      8333      2778  TIP3      H1             12.4132713709      -25.6039094476        7.5146951574  W2        3240            0.0000000000
      8334      2778  TIP3      H2             13.5438213709      -25.3411594476        8.4866551574  W2        3240            0.0000000000
      8335      2779  TIP3      OH2            21.9836013709      -23.0946094476        7.8876751574  W2        3242            0.0000000000
      8336      2779  TIP3      H1             21.7100813709      -23.5190594476        7.0745051574  W2        3242            0.0000000000
      8337      2779  TIP3      H2             22.0230113709      -22.1631594476        7.6707151574  W2        3242            0.0000000000
      8338      2780  TIP3      OH2            12.4909413709      -14.7586594476        9.4432251574  W2        3256            0.0000000000
      8339      2780  TIP3      H1             13.4240113709      -14.6007894476        9.5870651574  W2        3256            0.0000000000
      8340      2780  TIP3      H2             12.2268213709      -14.0833594476        8.8183751574  W2        3256            0.0000000000
      8341      2781  TIP3      OH2             6.0594313709      -20.1222794476        8.9260351574  W2        3257            0.0000000000
      8342      2781  TIP3      H1              6.9733513709      -20.0433894476        9.1994251574  W2        3257            0.0000000000
      8343      2781  TIP3      H2              6.0667413709      -20.8093194476        8.2595951574  W2        3257            0.0000000000
      8344      2782  TIP3      OH2            23.1047513709      -24.2712094476       10.0774151574  W2        3267            0.0000000000
      8345      2782  TIP3      H1             22.5828613709      -23.9147994476        9.3585051574  W2        3267            0.0000000000
      8346      2782  TIP3      H2             23.0716713709      -23.5964294476       10.7555051574  W2        3267            0.0000000000
      8347      2783  TIP3      OH2            21.4536513709      -27.0316494476        8.6281251574  W2        3268            0.0000000000
      8348      2783  TIP3      H1             21.5500913709      -26.3649494476        7.9480951574  W2        3268            0.0000000000
      8349      2783  TIP3      H2             21.3136113709      -27.8470194476        8.1466751574  W2        3268            0.0000000000
      8350      2784  TIP3      OH2            20.7010313709      -29.6236694476        7.7456751574  W2        3273            0.0000000000
      8351      2784  TIP3      H1             21.3116113709      -29.9949894476        8.3824951574  W2        3273            0.0000000000
      8352      2784  TIP3      H2             19.8641813709      -30.0449794476        7.9416751574  W2        3273            0.0000000000
      8353      2785  TIP3      OH2            22.8137013709      -30.7380894476        9.2878951574  W2        3283            0.0000000000
      8354      2785  TIP3      H1             23.2259613709      -31.4595194476        8.8126951574  W2        3283            0.0000000000
      8355      2785  TIP3      H2             23.4953513709      -30.0686294476        9.3463251574  W2        3283            0.0000000000
      8356      2786  TIP3      OH2             6.3710313709      -32.6905494476       10.3936251574  W2        3304            0.0000000000
      8357      2786  TIP3      H1              6.8101013709      -32.0794994476        9.8019751574  W2        3304            0.0000000000
      8358      2786  TIP3      H2              5.7372713709      -32.1521394476       10.8676251574  W2        3304            0.0000000000
      8359      2787  TIP3      OH2             8.2319413709      -30.7743994476        8.8360351574  W2        3309            0.0000000000
      8360      2787  TIP3      H1              8.7232813709      -31.4041594476        8.3085851574  W2        3309            0.0000000000
      8361      2787  TIP3      H2              8.8555713709      -30.4784594476        9.4991551574  W2        3309            0.0000000000
      8362      2788  TIP3      OH2            15.1363313709      -15.5328394476        9.6887551574  W2        3311            0.0000000000
      8363      2788  TIP3      H1             16.0023513709      -15.1660994476        9.5105751574  W2        3311            0.0000000000
      8364      2788  TIP3      H2             14.8896113709      -15.9720394476        8.8748351574  W2        3311            0.0000000000
      8365      2789  TIP3      OH2             8.0901013709      -15.8222494476        8.3163451574  W2        3315            0.0000000000
      8366      2789  TIP3      H1              7.8225613709      -15.5359594476        9.1896551574  W2        3315            0.0000000000
      8367      2789  TIP3      H2              8.8613613709      -16.3683294476        8.4685951574  W2        3315            0.0000000000
      8368      2790  TIP3      OH2            30.3992713709      -29.3622094476        8.0386651574  W2        3347            0.0000000000
      8369      2790  TIP3      H1             29.9683413709      -29.8071994476        8.7684051574  W2        3347            0.0000000000
      8370      2790  TIP3      H2             29.6811413709      -28.9905794476        7.5264151574  W2        3347            0.0000000000
      8371      2791  TIP3      OH2            24.9158213709      -28.8740594476       10.5145751574  W2        3349            0.0000000000
      8372      2791  TIP3      H1             25.3899913709      -28.2830694476        9.9296651574  W2        3349            0.0000000000
      8373      2791  TIP3      H2             24.1984613709      -28.3437694476       10.8615851574  W2        3349            0.0000000000
      8374      2792  TIP3      OH2            29.0174613709      -26.5849194476        9.4211051574  W2        3353            0.0000000000
      8375      2792  TIP3      H1             28.4749713709      -26.9645394476        8.7298651574  W2        3353            0.0000000000
      8376      2792  TIP3      H2             29.8509513709      -26.3904494476        8.9925151574  W2        3353            0.0000000000
      8377      2793  TIP3      OH2            25.6072813709      -24.3441194476        9.1180951574  W2        3363            0.0000000000
      8378      2793  TIP3      H1             26.2232713709      -23.7173994476        9.4975751574  W2        3363            0.0000000000
      8379      2793  TIP3      H2             24.7455413709      -24.0281394476        9.3897451574  W2        3363            0.0000000000
      8380      2794  TIP3      OH2            31.6321513709      -19.2544494476        7.6438551574  W2        3369            0.0000000000
      8381      2794  TIP3      H1             31.8711313709      -20.0026394476        7.0967451574  W2        3369            0.0000000000
      8382      2794  TIP3      H2             31.3632813709      -19.6422794476        8.4766351574  W2        3369            0.0000000000
      8383      2795  TIP3      OH2            30.5692113709      -19.6840694476       10.1001151574  W2        3370            0.0000000000
      8384      2795  TIP3      H1             30.7160113709      -20.2040894476       10.8902051574  W2        3370            0.0000000000
      8385      2795  TIP3      H2             30.5663813709      -18.7773094476       10.4067051574  W2        3370            0.0000000000
      8386      2796  TIP3      OH2            27.0223213709      -22.4317394476       10.6106551574  W2        3371            0.0000000000
      8387      2796  TIP3      H1             26.3362513709      -22.0794894476       11.1776251574  W2        3371            0.0000000000
      8388      2796  TIP3      H2             27.5451113709      -21.6687794476       10.3640851574  W2        3371            0.0000000000
      8389      2797  TIP3      OH2            30.6452413709      -16.9429894476       10.8312251574  W2        3373            0.0000000000
      8390      2797  TIP3      H1             30.8061113709      -16.1432394476       10.3304851574  W2        3373            0.0000000000
      8391      2797  TIP3      H2             30.4480213709      -16.6363894476       11.7162851574  W2        3373            0.0000000000
      8392      2798  TIP3      OH2            29.3796813709      -30.2450694476       10.4469851574  W2        3374            0.0000000000
      8393      2798  TIP3      H1             29.2961613709      -29.3567594476       10.7936251574  W2        3374            0.0000000000
      8394      2798  TIP3      H2             30.2697113709      -30.5103994476       10.6786651574  W2        3374            0.0000000000
      8395      2799  TIP3      OH2            27.6382113709      -19.8178494476        9.5074351574  W2        3375            0.0000000000
      8396      2799  TIP3      H1             28.2303613709      -19.1183694476        9.7836751574  W2        3375            0.0000000000
      8397      2799  TIP3      H2             28.0975113709      -20.2508994476        8.7878951574  W2        3375            0.0000000000
      8398      2800  TIP3      OH2            25.9541313709      -27.1535494476        8.6233751574  W2        3376            0.0000000000
      8399      2800  TIP3      H1             25.9093913709      -26.2142394476        8.8020751574  W2        3376            0.0000000000
      8400      2800  TIP3      H2             25.0664513709      -27.3890594476        8.3535851574  W2        3376            0.0000000000
      8401      2801  TIP3      OH2            29.2293513709      -21.6648294476        7.8737451574  W2        3382            0.0000000000
      8402      2801  TIP3      H1             29.2937613709      -22.4588694476        8.4043851574  W2        3382            0.0000000000
      8403      2801  TIP3      H2             29.8822713709      -21.7835494476        7.1839451574  W2        3382            0.0000000000
      8404      2802  TIP3      OH2            30.3787313709      -23.6922094476       10.1795451574  W2        3385            0.0000000000
      8405      2802  TIP3      H1             29.9189313709      -24.1763794476       10.8653951574  W2        3385            0.0000000000
      8406      2802  TIP3      H2             30.6336013709      -24.3606694476        9.5435951574  W2        3385            0.0000000000
      8407      2803  TIP3      OH2            31.4497713709      -25.4490294476        8.4418651574  W2        3387            0.0000000000
      8408      2803  TIP3      H1             31.2692713709      -25.6039094476        7.5146951574  W2        3387            0.0000000000
      8409      2803  TIP3      H2             32.3998213709      -25.3411594476        8.4866551574  W2        3387            0.0000000000
      8410      2804  TIP3      OH2            31.3469413709      -14.7586594476        9.4432251574  W2        3397            0.0000000000
      8411      2804  TIP3      H1             32.2800113709      -14.6007894476        9.5870651574  W2        3397            0.0000000000
      8412      2804  TIP3      H2             31.0828213709      -14.0833594476        8.8183751574  W2        3397            0.0000000000
      8413      2805  TIP3      OH2            24.9154313709      -20.1222794476        8.9260351574  W2        3398            0.0000000000
      8414      2805  TIP3      H1             25.8293513709      -20.0433894476        9.1994251574  W2        3398            0.0000000000
      8415      2805  TIP3      H2             24.9227413709      -20.8093194476        8.2595951574  W2        3398            0.0000000000
      8416      2806  TIP3      OH2            25.2270313709      -32.6905494476       10.3936251574  W2        3415            0.0000000000
      8417      2806  TIP3      H1             25.6661013709      -32.0794994476        9.8019751574  W2        3415            0.0000000000
      8418      2806  TIP3      H2             24.5932713709      -32.1521394476       10.8676251574  W2        3415            0.0000000000
      8419      2807  TIP3      OH2            27.0879413709      -30.7743994476        8.8360351574  W2        3418            0.0000000000
      8420      2807  TIP3      H1             27.5792813709      -31.4041594476        8.3085851574  W2        3418            0.0000000000
      8421      2807  TIP3      H2             27.7115713709      -30.4784594476        9.4991551574  W2        3418            0.0000000000
      8422      2808  TIP3      OH2            26.9461013709      -15.8222494476        8.3163451574  W2        3422            0.0000000000
      8423      2808  TIP3      H1             26.6785613709      -15.5359594476        9.1896551574  W2        3422            0.0000000000
      8424      2808  TIP3      H2             27.7173613709      -16.3683294476        8.4685951574  W2        3422            0.0000000000
      8425      2809  TIP3      OH2           -22.3238786291       -6.7746994476        9.0392951574  W2        3453            0.0000000000
      8426      2809  TIP3      H1            -21.6228886291       -6.7520094476        9.6906951574  W2        3453            0.0000000000
      8427      2809  TIP3      H2            -22.0215886291       -7.4027294476        8.3832251574  W2        3453            0.0000000000
      8428      2810  TIP3      OH2           -20.1010786291       -5.8605094476       10.6375051574  W2        3462            0.0000000000
      8429      2810  TIP3      H1            -19.5215286291       -5.7104794476       11.3843951574  W2        3462            0.0000000000
      8430      2810  TIP3      H2            -19.6870786291       -5.3897694476        9.9141451574  W2        3462            0.0000000000
      8431      2811  TIP3      OH2           -16.4022386291      -14.1104694476       10.4504751574  W2        3466            0.0000000000
      8432      2811  TIP3      H1            -17.3021686291      -13.9715694476       10.7455351574  W2        3466            0.0000000000
      8433      2811  TIP3      H2            -16.1503986291      -13.2790094476       10.0486451574  W2        3466            0.0000000000
      8434      2812  TIP3      OH2           -15.2130986291        0.2557705524        8.8268651574  W2        3468            0.0000000000
      8435      2812  TIP3      H1            -15.1397486291        1.1947905524        8.9973951574  W2        3468            0.0000000000
      8436      2812  TIP3      H2            -14.3075886291       -0.0493694476        8.7705951574  W2        3468            0.0000000000
      8437      2813  TIP3      OH2           -19.8006786291        2.9868305524        9.4899751574  W2        3475            0.0000000000
      8438      2813  TIP3      H1            -19.4258386291        2.2424405524        9.0192351574  W2        3475            0.0000000000
      8439      2813  TIP3      H2            -19.7963086291        2.7168905524       10.4083051574  W2        3475            0.0000000000
      8440      2814  TIP3      OH2           -18.6237686291       -4.8276794476        8.2672951574  W2        3482            0.0000000000
      8441      2814  TIP3      H1            -18.5816886291       -5.0502894476        7.3372951574  W2        3482            0.0000000000
      8442      2814  TIP3      H2            -17.7745586291       -4.4289694476        8.4572851574  W2        3482            0.0000000000
      8443      2815  TIP3      OH2           -23.0510186291      -10.9518594476        8.9376251574  W2        3483            0.0000000000
      8444      2815  TIP3      H1            -23.3045386291      -10.9326994476        9.8604351574  W2        3483            0.0000000000
      8445      2815  TIP3      H2            -23.3078086291      -11.8233194476        8.6362451574  W2        3483            0.0000000000
      8446      2816  TIP3      OH2           -26.1687286291      -10.5062094476        8.0386651574  W2        3490            0.0000000000
      8447      2816  TIP3      H1            -26.5996586291      -10.9511994476        8.7684051574  W2        3490            0.0000000000
      8448      2816  TIP3      H2            -26.8868586291      -10.1345794476        7.5264151574  W2        3490            0.0000000000
      8449      2817  TIP3      OH2           -31.6521786291      -10.0180594476       10.5145751574  W2        3492            0.0000000000
      8450      2817  TIP3      H1            -31.1780086291       -9.4270694476        9.9296651574  W2        3492            0.0000000000
      8451      2817  TIP3      H2            -32.3695386291       -9.4877694476       10.8615851574  W2        3492            0.0000000000
      8452      2818  TIP3      OH2           -27.5505386291       -7.7289194476        9.4211051574  W2        3498            0.0000000000
      8453      2818  TIP3      H1            -28.0930286291       -8.1085394476        8.7298651574  W2        3498            0.0000000000
      8454      2818  TIP3      H2            -26.7170486291       -7.5344494476        8.9925151574  W2        3498            0.0000000000
      8455      2819  TIP3      OH2           -20.3175786291      -10.3493594476        9.5561751574  W2        3506            0.0000000000
      8456      2819  TIP3      H1            -21.2561586291      -10.2377994476        9.4050551574  W2        3506            0.0000000000
      8457      2819  TIP3      H2            -20.0203686291       -9.4926694476        9.8627451574  W2        3506            0.0000000000
      8458      2820  TIP3      OH2           -22.0898486291       -1.7049194476       10.3823751574  W2        3510            0.0000000000
      8459      2820  TIP3      H1            -22.3850086291       -0.8781294476       10.7638551574  W2        3510            0.0000000000
      8460      2820  TIP3      H2            -22.7928486291       -2.3242294476       10.5785151574  W2        3510            0.0000000000
      8461      2821  TIP3      OH2           -30.9607186291       -5.4881194476        9.1180951574  W2        3519            0.0000000000
      8462      2821  TIP3      H1            -30.3447286291       -4.8613994476        9.4975751574  W2        3519            0.0000000000
      8463      2821  TIP3      H2            -31.8224586291       -5.1721394476        9.3897451574  W2        3519            0.0000000000
      8464      2822  TIP3      OH2           -19.0266286291       -1.5100594476        9.1968551574  W2        3524            0.0000000000
      8465      2822  TIP3      H1            -18.6733186291       -1.8900794476       10.0012051574  W2        3524            0.0000000000
      8466      2822  TIP3      H2            -19.9752786291       -1.6035794476        9.2837851574  W2        3524            0.0000000000
      8467      2823  TIP3      OH2           -14.5231886291        2.9691905524        9.3978751574  W2        3526            0.0000000000
      8468      2823  TIP3      H1            -13.7793986291        3.5552405524        9.2580351574  W2        3526            0.0000000000
      8469      2823  TIP3      H2            -15.2173786291        3.5377705524        9.7311151574  W2        3526            0.0000000000
      8470      2824  TIP3      OH2           -24.9358486291       -0.3984494476        7.6438551574  W2        3530            0.0000000000
      8471      2824  TIP3      H1            -24.6968686291       -1.1466394476        7.0967451574  W2        3530            0.0000000000
      8472      2824  TIP3      H2            -25.2047186291       -0.7862794476        8.4766351574  W2        3530            0.0000000000
      8473      2825  TIP3      OH2           -25.9987886291       -0.8280694476       10.1001151574  W2        3531            0.0000000000
      8474      2825  TIP3      H1            -25.8519886291       -1.3480894476       10.8902051574  W2        3531            0.0000000000
      8475      2825  TIP3      H2            -26.0016186291        0.0786905524       10.4067051574  W2        3531            0.0000000000
      8476      2826  TIP3      OH2           -29.5456786291       -3.5757394476       10.6106551574  W2        3532            0.0000000000
      8477      2826  TIP3      H1            -30.2317486291       -3.2234894476       11.1776251574  W2        3532            0.0000000000
      8478      2826  TIP3      H2            -29.0228886291       -2.8127794476       10.3640851574  W2        3532            0.0000000000
      8479      2827  TIP3      OH2           -23.2610686291        0.8692905524       10.8495351574  W2        3535            0.0000000000
      8480      2827  TIP3      H1            -24.0774586291        1.3662605524       10.9019651574  W2        3535            0.0000000000
      8481      2827  TIP3      H2            -22.7314386291        1.3446405524       10.2094151574  W2        3535            0.0000000000
      8482      2828  TIP3      OH2           -25.9227586291        1.9130105524       10.8312251574  W2        3539            0.0000000000
      8483      2828  TIP3      H1            -25.7618886291        2.7127605524       10.3304851574  W2        3539            0.0000000000
      8484      2828  TIP3      H2            -26.1199786291        2.2196105524       11.7162851574  W2        3539            0.0000000000
      8485      2829  TIP3      OH2           -27.1883186291      -11.3890694476       10.4469851574  W2        3540            0.0000000000
      8486      2829  TIP3      H1            -27.2718386291      -10.5007594476       10.7936251574  W2        3540            0.0000000000
      8487      2829  TIP3      H2            -26.2982886291      -11.6543994476       10.6786651574  W2        3540            0.0000000000
      8488      2830  TIP3      OH2           -28.9297886291       -0.9618494476        9.5074351574  W2        3543            0.0000000000
      8489      2830  TIP3      H1            -28.3376386291       -0.2623694476        9.7836751574  W2        3543            0.0000000000
      8490      2830  TIP3      H2            -28.4704886291       -1.3948994476        8.7878951574  W2        3543            0.0000000000
      8491      2831  TIP3      OH2           -30.6138686291       -8.2975494476        8.6233751574  W2        3544            0.0000000000
      8492      2831  TIP3      H1            -30.6586086291       -7.3582394476        8.8020751574  W2        3544            0.0000000000
      8493      2831  TIP3      H2            -31.5015486291       -8.5330594476        8.3535851574  W2        3544            0.0000000000
      8494      2832  TIP3      OH2           -22.8976686291        1.4646905524        7.7824551574  W2        3550            0.0000000000
      8495      2832  TIP3      H1            -23.5415686291        0.8335505524        8.1038251574  W2        3550            0.0000000000
      8496      2832  TIP3      H2            -22.1358386291        0.9334905524        7.5508051574  W2        3550            0.0000000000
      8497      2833  TIP3      OH2           -18.2933786291        1.2816805524        8.0162551574  W2        3552            0.0000000000
      8498      2833  TIP3      H1            -18.0103386291        0.4872005524        8.4689451574  W2        3552            0.0000000000
      8499      2833  TIP3      H2            -17.5535886291        1.5147805524        7.4553651574  W2        3552            0.0000000000
      8500      2834  TIP3      OH2           -27.3386486291       -2.8088294476        7.8737451574  W2        3554            0.0000000000
      8501      2834  TIP3      H1            -27.2742386291       -3.6028694476        8.4043851574  W2        3554            0.0000000000
      8502      2834  TIP3      H2            -26.6857286291       -2.9275494476        7.1839451574  W2        3554            0.0000000000
      8503      2835  TIP3      OH2           -21.9863086291       -1.7616594476        7.6095451574  W2        3556            0.0000000000
      8504      2835  TIP3      H1            -22.2548986291       -1.5814494476        8.5104351574  W2        3556            0.0000000000
      8505      2835  TIP3      H2            -22.1927486291       -2.6870394476        7.4781251574  W2        3556            0.0000000000
      8506      2836  TIP3      OH2           -26.1892686291       -4.8362094476       10.1795451574  W2        3559            0.0000000000
      8507      2836  TIP3      H1            -26.6490686291       -5.3203794476       10.8653951574  W2        3559            0.0000000000
      8508      2836  TIP3      H2            -25.9343986291       -5.5046694476        9.5435951574  W2        3559            0.0000000000
      8509      2837  TIP3      OH2           -25.1182286291       -6.5930294476        8.4418651574  W2        3561            0.0000000000
      8510      2837  TIP3      H1            -25.2987286291       -6.7479094476        7.5146951574  W2        3561            0.0000000000
      8511      2837  TIP3      H2            -24.1681786291       -6.4851594476        8.4866551574  W2        3561            0.0000000000
      8512      2838  TIP3      OH2           -15.7283986291       -4.2386094476        7.8876751574  W2        3563            0.0000000000
      8513      2838  TIP3      H1            -16.0019186291       -4.6630594476        7.0745051574  W2        3563            0.0000000000
      8514      2838  TIP3      H2            -15.6889886291       -3.3071594476        7.6707151574  W2        3563            0.0000000000
      8515      2839  TIP3      OH2           -25.2210586291        4.0973405524        9.4432251574  W2        3577            0.0000000000
      8516      2839  TIP3      H1            -24.2879886291        4.2552105524        9.5870651574  W2        3577            0.0000000000
      8517      2839  TIP3      H2            -25.4851786291        4.7726405524        8.8183751574  W2        3577            0.0000000000
      8518      2840  TIP3      OH2           -31.6525686291       -1.2662794476        8.9260351574  W2        3578            0.0000000000
      8519      2840  TIP3      H1            -30.7386486291       -1.1873894476        9.1994251574  W2        3578            0.0000000000
      8520      2840  TIP3      H2            -31.6452586291       -1.9533194476        8.2595951574  W2        3578            0.0000000000
      8521      2841  TIP3      OH2           -14.6072486291       -5.4152094476       10.0774151574  W2        3588            0.0000000000
      8522      2841  TIP3      H1            -15.1291386291       -5.0587994476        9.3585051574  W2        3588            0.0000000000
      8523      2841  TIP3      H2            -14.6403286291       -4.7404294476       10.7555051574  W2        3588            0.0000000000
      8524      2842  TIP3      OH2           -16.2583486291       -8.1756494476        8.6281251574  W2        3589            0.0000000000
      8525      2842  TIP3      H1            -16.1619086291       -7.5089494476        7.9480951574  W2        3589            0.0000000000
      8526      2842  TIP3      H2            -16.3983886291       -8.9910194476        8.1466751574  W2        3589            0.0000000000
      8527      2843  TIP3      OH2           -17.0109686291      -10.7676694476        7.7456751574  W2        3594            0.0000000000
      8528      2843  TIP3      H1            -16.4003886291      -11.1389894476        8.3824951574  W2        3594            0.0000000000
      8529      2843  TIP3      H2            -17.8478186291      -11.1889794476        7.9416751574  W2        3594            0.0000000000
      8530      2844  TIP3      OH2           -14.8982986291      -11.8820894476        9.2878951574  W2        3604            0.0000000000
      8531      2844  TIP3      H1            -14.4860386291      -12.6035194476        8.8126951574  W2        3604            0.0000000000
      8532      2844  TIP3      H2            -14.2166486291      -11.2126294476        9.3463251574  W2        3604            0.0000000000
      8533      2845  TIP3      OH2           -31.3409686291      -13.8345494476       10.3936251574  W2        3625            0.0000000000
      8534      2845  TIP3      H1            -30.9018986291      -13.2234994476        9.8019751574  W2        3625            0.0000000000
      8535      2845  TIP3      H2            -31.9747286291      -13.2961394476       10.8676251574  W2        3625            0.0000000000
      8536      2846  TIP3      OH2           -29.4800586291      -11.9183994476        8.8360351574  W2        3630            0.0000000000
      8537      2846  TIP3      H1            -28.9887186291      -12.5481594476        8.3085851574  W2        3630            0.0000000000
      8538      2846  TIP3      H2            -28.8564286291      -11.6224594476        9.4991551574  W2        3630            0.0000000000
      8539      2847  TIP3      OH2           -22.5756686291        3.3231605524        9.6887551574  W2        3632            0.0000000000
      8540      2847  TIP3      H1            -21.7096486291        3.6899005524        9.5105751574  W2        3632            0.0000000000
      8541      2847  TIP3      H2            -22.8223886291        2.8839605524        8.8748351574  W2        3632            0.0000000000
      8542      2848  TIP3      OH2           -29.6218986291        3.0337505524        8.3163451574  W2        3636            0.0000000000
      8543      2848  TIP3      H1            -29.8894386291        3.3200405524        9.1896551574  W2        3636            0.0000000000
      8544      2848  TIP3      H2            -28.8506386291        2.4876705524        8.4685951574  W2        3636            0.0000000000
      8545      2849  TIP3      OH2            -3.4678786291       -6.7746994476        9.0392951574  W2        3669            0.0000000000
      8546      2849  TIP3      H1             -2.7668886291       -6.7520094476        9.6906951574  W2        3669            0.0000000000
      8547      2849  TIP3      H2             -3.1655886291       -7.4027294476        8.3832251574  W2        3669            0.0000000000
      8548      2850  TIP3      OH2            -1.2450786291       -5.8605094476       10.6375051574  W2        3678            0.0000000000
      8549      2850  TIP3      H1             -0.6655286291       -5.7104794476       11.3843951574  W2        3678            0.0000000000
      8550      2850  TIP3      H2             -0.8310786291       -5.3897694476        9.9141451574  W2        3678            0.0000000000
      8551      2851  TIP3      OH2             2.4537613709      -14.1104694476       10.4504751574  W2        3682            0.0000000000
      8552      2851  TIP3      H1              1.5538313709      -13.9715694476       10.7455351574  W2        3682            0.0000000000
      8553      2851  TIP3      H2              2.7056013709      -13.2790094476       10.0486451574  W2        3682            0.0000000000
      8554      2852  TIP3      OH2             3.6429013709        0.2557705524        8.8268651574  W2        3684            0.0000000000
      8555      2852  TIP3      H1              3.7162513709        1.1947905524        8.9973951574  W2        3684            0.0000000000
      8556      2852  TIP3      H2              4.5484113709       -0.0493694476        8.7705951574  W2        3684            0.0000000000
      8557      2853  TIP3      OH2            -0.9446786291        2.9868305524        9.4899751574  W2        3691            0.0000000000
      8558      2853  TIP3      H1             -0.5698386291        2.2424405524        9.0192351574  W2        3691            0.0000000000
      8559      2853  TIP3      H2             -0.9403086291        2.7168905524       10.4083051574  W2        3691            0.0000000000
      8560      2854  TIP3      OH2             0.2322313709       -4.8276794476        8.2672951574  W2        3698            0.0000000000
      8561      2854  TIP3      H1              0.2743113709       -5.0502894476        7.3372951574  W2        3698            0.0000000000
      8562      2854  TIP3      H2              1.0814413709       -4.4289694476        8.4572851574  W2        3698            0.0000000000
      8563      2855  TIP3      OH2            -4.1950186291      -10.9518594476        8.9376251574  W2        3699            0.0000000000
      8564      2855  TIP3      H1             -4.4485386291      -10.9326994476        9.8604351574  W2        3699            0.0000000000
      8565      2855  TIP3      H2             -4.4518086291      -11.8233194476        8.6362451574  W2        3699            0.0000000000
      8566      2856  TIP3      OH2            -7.3127286291      -10.5062094476        8.0386651574  W2        3706            0.0000000000
      8567      2856  TIP3      H1             -7.7436586291      -10.9511994476        8.7684051574  W2        3706            0.0000000000
      8568      2856  TIP3      H2             -8.0308586291      -10.1345794476        7.5264151574  W2        3706            0.0000000000
      8569      2857  TIP3      OH2           -12.7961786291      -10.0180594476       10.5145751574  W2        3708            0.0000000000
      8570      2857  TIP3      H1            -12.3220086291       -9.4270694476        9.9296651574  W2        3708            0.0000000000
      8571      2857  TIP3      H2            -13.5135386291       -9.4877694476       10.8615851574  W2        3708            0.0000000000
      8572      2858  TIP3      OH2            -8.6945386291       -7.7289194476        9.4211051574  W2        3714            0.0000000000
      8573      2858  TIP3      H1             -9.2370286291       -8.1085394476        8.7298651574  W2        3714            0.0000000000
      8574      2858  TIP3      H2             -7.8610486291       -7.5344494476        8.9925151574  W2        3714            0.0000000000
      8575      2859  TIP3      OH2            -1.4615786291      -10.3493594476        9.5561751574  W2        3722            0.0000000000
      8576      2859  TIP3      H1             -2.4001586291      -10.2377994476        9.4050551574  W2        3722            0.0000000000
      8577      2859  TIP3      H2             -1.1643686291       -9.4926694476        9.8627451574  W2        3722            0.0000000000
      8578      2860  TIP3      OH2            -3.2338486291       -1.7049194476       10.3823751574  W2        3726            0.0000000000
      8579      2860  TIP3      H1             -3.5290086291       -0.8781294476       10.7638551574  W2        3726            0.0000000000
      8580      2860  TIP3      H2             -3.9368486291       -2.3242294476       10.5785151574  W2        3726            0.0000000000
      8581      2861  TIP3      OH2           -12.1047186291       -5.4881194476        9.1180951574  W2        3735            0.0000000000
      8582      2861  TIP3      H1            -11.4887286291       -4.8613994476        9.4975751574  W2        3735            0.0000000000
      8583      2861  TIP3      H2            -12.9664586291       -5.1721394476        9.3897451574  W2        3735            0.0000000000
      8584      2862  TIP3      OH2            -0.1706286291       -1.5100594476        9.1968551574  W2        3740            0.0000000000
      8585      2862  TIP3      H1              0.1826813709       -1.8900794476       10.0012051574  W2        3740            0.0000000000
      8586      2862  TIP3      H2             -1.1192786291       -1.6035794476        9.2837851574  W2        3740            0.0000000000
      8587      2863  TIP3      OH2             4.3328113709        2.9691905524        9.3978751574  W2        3742            0.0000000000
      8588      2863  TIP3      H1              5.0766013709        3.5552405524        9.2580351574  W2        3742            0.0000000000
      8589      2863  TIP3      H2              3.6386213709        3.5377705524        9.7311151574  W2        3742            0.0000000000
      8590      2864  TIP3      OH2            -6.0798486291       -0.3984494476        7.6438551574  W2        3746            0.0000000000
      8591      2864  TIP3      H1             -5.8408686291       -1.1466394476        7.0967451574  W2        3746            0.0000000000
      8592      2864  TIP3      H2             -6.3487186291       -0.7862794476        8.4766351574  W2        3746            0.0000000000
      8593      2865  TIP3      OH2            -7.1427886291       -0.8280694476       10.1001151574  W2        3747            0.0000000000
      8594      2865  TIP3      H1             -6.9959886291       -1.3480894476       10.8902051574  W2        3747            0.0000000000
      8595      2865  TIP3      H2             -7.1456186291        0.0786905524       10.4067051574  W2        3747            0.0000000000
      8596      2866  TIP3      OH2           -10.6896786291       -3.5757394476       10.6106551574  W2        3748            0.0000000000
      8597      2866  TIP3      H1            -11.3757486291       -3.2234894476       11.1776251574  W2        3748            0.0000000000
      8598      2866  TIP3      H2            -10.1668886291       -2.8127794476       10.3640851574  W2        3748            0.0000000000
      8599      2867  TIP3      OH2            -4.4050686291        0.8692905524       10.8495351574  W2        3751            0.0000000000
      8600      2867  TIP3      H1             -5.2214586291        1.3662605524       10.9019651574  W2        3751            0.0000000000
      8601      2867  TIP3      H2             -3.8754386291        1.3446405524       10.2094151574  W2        3751            0.0000000000
      8602      2868  TIP3      OH2            -7.0667586291        1.9130105524       10.8312251574  W2        3755            0.0000000000
      8603      2868  TIP3      H1             -6.9058886291        2.7127605524       10.3304851574  W2        3755            0.0000000000
      8604      2868  TIP3      H2             -7.2639786291        2.2196105524       11.7162851574  W2        3755            0.0000000000
      8605      2869  TIP3      OH2            -8.3323186291      -11.3890694476       10.4469851574  W2        3756            0.0000000000
      8606      2869  TIP3      H1             -8.4158386291      -10.5007594476       10.7936251574  W2        3756            0.0000000000
      8607      2869  TIP3      H2             -7.4422886291      -11.6543994476       10.6786651574  W2        3756            0.0000000000
      8608      2870  TIP3      OH2           -10.0737886291       -0.9618494476        9.5074351574  W2        3759            0.0000000000
      8609      2870  TIP3      H1             -9.4816386291       -0.2623694476        9.7836751574  W2        3759            0.0000000000
      8610      2870  TIP3      H2             -9.6144886291       -1.3948994476        8.7878951574  W2        3759            0.0000000000
      8611      2871  TIP3      OH2           -11.7578686291       -8.2975494476        8.6233751574  W2        3760            0.0000000000
      8612      2871  TIP3      H1            -11.8026086291       -7.3582394476        8.8020751574  W2        3760            0.0000000000
      8613      2871  TIP3      H2            -12.6455486291       -8.5330594476        8.3535851574  W2        3760            0.0000000000
      8614      2872  TIP3      OH2            -4.0416686291        1.4646905524        7.7824551574  W2        3766            0.0000000000
      8615      2872  TIP3      H1             -4.6855686291        0.8335505524        8.1038251574  W2        3766            0.0000000000
      8616      2872  TIP3      H2             -3.2798386291        0.9334905524        7.5508051574  W2        3766            0.0000000000
      8617      2873  TIP3      OH2             0.5626213709        1.2816805524        8.0162551574  W2        3768            0.0000000000
      8618      2873  TIP3      H1              0.8456613709        0.4872005524        8.4689451574  W2        3768            0.0000000000
      8619      2873  TIP3      H2              1.3024113709        1.5147805524        7.4553651574  W2        3768            0.0000000000
      8620      2874  TIP3      OH2            -8.4826486291       -2.8088294476        7.8737451574  W2        3770            0.0000000000
      8621      2874  TIP3      H1             -8.4182386291       -3.6028694476        8.4043851574  W2        3770            0.0000000000
      8622      2874  TIP3      H2             -7.8297286291       -2.9275494476        7.1839451574  W2        3770            0.0000000000
      8623      2875  TIP3      OH2            -3.1303086291       -1.7616594476        7.6095451574  W2        3772            0.0000000000
      8624      2875  TIP3      H1             -3.3988986291       -1.5814494476        8.5104351574  W2        3772            0.0000000000
      8625      2875  TIP3      H2             -3.3367486291       -2.6870394476        7.4781251574  W2        3772            0.0000000000
      8626      2876  TIP3      OH2            -7.3332686291       -4.8362094476       10.1795451574  W2        3775            0.0000000000
      8627      2876  TIP3      H1             -7.7930686291       -5.3203794476       10.8653951574  W2        3775            0.0000000000
      8628      2876  TIP3      H2             -7.0783986291       -5.5046694476        9.5435951574  W2        3775            0.0000000000
      8629      2877  TIP3      OH2            -6.2622286291       -6.5930294476        8.4418651574  W2        3777            0.0000000000
      8630      2877  TIP3      H1             -6.4427286291       -6.7479094476        7.5146951574  W2        3777            0.0000000000
      8631      2877  TIP3      H2             -5.3121786291       -6.4851594476        8.4866551574  W2        3777            0.0000000000
      8632      2878  TIP3      OH2             3.1276013709       -4.2386094476        7.8876751574  W2        3779            0.0000000000
      8633      2878  TIP3      H1              2.8540813709       -4.6630594476        7.0745051574  W2        3779            0.0000000000
      8634      2878  TIP3      H2              3.1670113709       -3.3071594476        7.6707151574  W2        3779            0.0000000000
      8635      2879  TIP3      OH2            -6.3650586291        4.0973405524        9.4432251574  W2        3793            0.0000000000
      8636      2879  TIP3      H1             -5.4319886291        4.2552105524        9.5870651574  W2        3793            0.0000000000
      8637      2879  TIP3      H2             -6.6291786291        4.7726405524        8.8183751574  W2        3793            0.0000000000
      8638      2880  TIP3      OH2           -12.7965686291       -1.2662794476        8.9260351574  W2        3794            0.0000000000
      8639      2880  TIP3      H1            -11.8826486291       -1.1873894476        9.1994251574  W2        3794            0.0000000000
      8640      2880  TIP3      H2            -12.7892586291       -1.9533194476        8.2595951574  W2        3794            0.0000000000
      8641      2881  TIP3      OH2             4.2487513709       -5.4152094476       10.0774151574  W2        3804            0.0000000000
      8642      2881  TIP3      H1              3.7268613709       -5.0587994476        9.3585051574  W2        3804            0.0000000000
      8643      2881  TIP3      H2              4.2156713709       -4.7404294476       10.7555051574  W2        3804            0.0000000000
      8644      2882  TIP3      OH2             2.5976513709       -8.1756494476        8.6281251574  W2        3805            0.0000000000
      8645      2882  TIP3      H1              2.6940913709       -7.5089494476        7.9480951574  W2        3805            0.0000000000
      8646      2882  TIP3      H2              2.4576113709       -8.9910194476        8.1466751574  W2        3805            0.0000000000
      8647      2883  TIP3      OH2             1.8450313709      -10.7676694476        7.7456751574  W2        3810            0.0000000000
      8648      2883  TIP3      H1              2.4556113709      -11.1389894476        8.3824951574  W2        3810            0.0000000000
      8649      2883  TIP3      H2              1.0081813709      -11.1889794476        7.9416751574  W2        3810            0.0000000000
      8650      2884  TIP3      OH2             3.9577013709      -11.8820894476        9.2878951574  W2        3820            0.0000000000
      8651      2884  TIP3      H1              4.3699613709      -12.6035194476        8.8126951574  W2        3820            0.0000000000
      8652      2884  TIP3      H2              4.6393513709      -11.2126294476        9.3463251574  W2        3820            0.0000000000
      8653      2885  TIP3      OH2           -12.4849686291      -13.8345494476       10.3936251574  W2        3841            0.0000000000
      8654      2885  TIP3      H1            -12.0458986291      -13.2234994476        9.8019751574  W2        3841            0.0000000000
      8655      2885  TIP3      H2            -13.1187286291      -13.2961394476       10.8676251574  W2        3841            0.0000000000
      8656      2886  TIP3      OH2           -10.6240586291      -11.9183994476        8.8360351574  W2        3846            0.0000000000
      8657      2886  TIP3      H1            -10.1327186291      -12.5481594476        8.3085851574  W2        3846            0.0000000000
      8658      2886  TIP3      H2            -10.0004286291      -11.6224594476        9.4991551574  W2        3846            0.0000000000
      8659      2887  TIP3      OH2            -3.7196686291        3.3231605524        9.6887551574  W2        3848            0.0000000000
      8660      2887  TIP3      H1             -2.8536486291        3.6899005524        9.5105751574  W2        3848            0.0000000000
      8661      2887  TIP3      H2             -3.9663886291        2.8839605524        8.8748351574  W2        3848            0.0000000000
      8662      2888  TIP3      OH2           -10.7658986291        3.0337505524        8.3163451574  W2        3852            0.0000000000
      8663      2888  TIP3      H1            -11.0334386291        3.3200405524        9.1896551574  W2        3852            0.0000000000
      8664      2888  TIP3      H2             -9.9946386291        2.4876705524        8.4685951574  W2        3852            0.0000000000
      8665      2889  TIP3      OH2            15.3881213709       -6.7746994476        9.0392951574  W2        3885            0.0000000000
      8666      2889  TIP3      H1             16.0891113709       -6.7520094476        9.6906951574  W2        3885            0.0000000000
      8667      2889  TIP3      H2             15.6904113709       -7.4027294476        8.3832251574  W2        3885            0.0000000000
      8668      2890  TIP3      OH2            17.6109213709       -5.8605094476       10.6375051574  W2        3894            0.0000000000
      8669      2890  TIP3      H1             18.1904713709       -5.7104794476       11.3843951574  W2        3894            0.0000000000
      8670      2890  TIP3      H2             18.0249213709       -5.3897694476        9.9141451574  W2        3894            0.0000000000
      8671      2891  TIP3      OH2            21.3097613709      -14.1104694476       10.4504751574  W2        3898            0.0000000000
      8672      2891  TIP3      H1             20.4098313709      -13.9715694476       10.7455351574  W2        3898            0.0000000000
      8673      2891  TIP3      H2             21.5616013709      -13.2790094476       10.0486451574  W2        3898            0.0000000000
      8674      2892  TIP3      OH2            22.4989013709        0.2557705524        8.8268651574  W2        3900            0.0000000000
      8675      2892  TIP3      H1             22.5722513709        1.1947905524        8.9973951574  W2        3900            0.0000000000
      8676      2892  TIP3      H2             23.4044113709       -0.0493694476        8.7705951574  W2        3900            0.0000000000
      8677      2893  TIP3      OH2            17.9113213709        2.9868305524        9.4899751574  W2        3907            0.0000000000
      8678      2893  TIP3      H1             18.2861613709        2.2424405524        9.0192351574  W2        3907            0.0000000000
      8679      2893  TIP3      H2             17.9156913709        2.7168905524       10.4083051574  W2        3907            0.0000000000
      8680      2894  TIP3      OH2            19.0882313709       -4.8276794476        8.2672951574  W2        3914            0.0000000000
      8681      2894  TIP3      H1             19.1303113709       -5.0502894476        7.3372951574  W2        3914            0.0000000000
      8682      2894  TIP3      H2             19.9374413709       -4.4289694476        8.4572851574  W2        3914            0.0000000000
      8683      2895  TIP3      OH2            14.6609813709      -10.9518594476        8.9376251574  W2        3915            0.0000000000
      8684      2895  TIP3      H1             14.4074613709      -10.9326994476        9.8604351574  W2        3915            0.0000000000
      8685      2895  TIP3      H2             14.4041913709      -11.8233194476        8.6362451574  W2        3915            0.0000000000
      8686      2896  TIP3      OH2            11.5432713709      -10.5062094476        8.0386651574  W2        3922            0.0000000000
      8687      2896  TIP3      H1             11.1123413709      -10.9511994476        8.7684051574  W2        3922            0.0000000000
      8688      2896  TIP3      H2             10.8251413709      -10.1345794476        7.5264151574  W2        3922            0.0000000000
      8689      2897  TIP3      OH2             6.0598213709      -10.0180594476       10.5145751574  W2        3924            0.0000000000
      8690      2897  TIP3      H1              6.5339913709       -9.4270694476        9.9296651574  W2        3924            0.0000000000
      8691      2897  TIP3      H2              5.3424613709       -9.4877694476       10.8615851574  W2        3924            0.0000000000
      8692      2898  TIP3      OH2            10.1614613709       -7.7289194476        9.4211051574  W2        3930            0.0000000000
      8693      2898  TIP3      H1              9.6189713709       -8.1085394476        8.7298651574  W2        3930            0.0000000000
      8694      2898  TIP3      H2             10.9949513709       -7.5344494476        8.9925151574  W2        3930            0.0000000000
      8695      2899  TIP3      OH2            17.3944213709      -10.3493594476        9.5561751574  W2        3938            0.0000000000
      8696      2899  TIP3      H1             16.4558413709      -10.2377994476        9.4050551574  W2        3938            0.0000000000
      8697      2899  TIP3      H2             17.6916313709       -9.4926694476        9.8627451574  W2        3938            0.0000000000
      8698      2900  TIP3      OH2            15.6221513709       -1.7049194476       10.3823751574  W2        3942            0.0000000000
      8699      2900  TIP3      H1             15.3269913709       -0.8781294476       10.7638551574  W2        3942            0.0000000000
      8700      2900  TIP3      H2             14.9191513709       -2.3242294476       10.5785151574  W2        3942            0.0000000000
      8701      2901  TIP3      OH2             6.7512813709       -5.4881194476        9.1180951574  W2        3951            0.0000000000
      8702      2901  TIP3      H1              7.3672713709       -4.8613994476        9.4975751574  W2        3951            0.0000000000
      8703      2901  TIP3      H2              5.8895413709       -5.1721394476        9.3897451574  W2        3951            0.0000000000
      8704      2902  TIP3      OH2            18.6853713709       -1.5100594476        9.1968551574  W2        3956            0.0000000000
      8705      2902  TIP3      H1             19.0386813709       -1.8900794476       10.0012051574  W2        3956            0.0000000000
      8706      2902  TIP3      H2             17.7367213709       -1.6035794476        9.2837851574  W2        3956            0.0000000000
      8707      2903  TIP3      OH2            23.1888113709        2.9691905524        9.3978751574  W2        3958            0.0000000000
      8708      2903  TIP3      H1             23.9326013709        3.5552405524        9.2580351574  W2        3958            0.0000000000
      8709      2903  TIP3      H2             22.4946213709        3.5377705524        9.7311151574  W2        3958            0.0000000000
      8710      2904  TIP3      OH2            12.7761513709       -0.3984494476        7.6438551574  W2        3962            0.0000000000
      8711      2904  TIP3      H1             13.0151313709       -1.1466394476        7.0967451574  W2        3962            0.0000000000
      8712      2904  TIP3      H2             12.5072813709       -0.7862794476        8.4766351574  W2        3962            0.0000000000
      8713      2905  TIP3      OH2            11.7132113709       -0.8280694476       10.1001151574  W2        3963            0.0000000000
      8714      2905  TIP3      H1             11.8600113709       -1.3480894476       10.8902051574  W2        3963            0.0000000000
      8715      2905  TIP3      H2             11.7103813709        0.0786905524       10.4067051574  W2        3963            0.0000000000
      8716      2906  TIP3      OH2             8.1663213709       -3.5757394476       10.6106551574  W2        3964            0.0000000000
      8717      2906  TIP3      H1              7.4802513709       -3.2234894476       11.1776251574  W2        3964            0.0000000000
      8718      2906  TIP3      H2              8.6891113709       -2.8127794476       10.3640851574  W2        3964            0.0000000000
      8719      2907  TIP3      OH2            14.4509313709        0.8692905524       10.8495351574  W2        3967            0.0000000000
      8720      2907  TIP3      H1             13.6345413709        1.3662605524       10.9019651574  W2        3967            0.0000000000
      8721      2907  TIP3      H2             14.9805613709        1.3446405524       10.2094151574  W2        3967            0.0000000000
      8722      2908  TIP3      OH2            11.7892413709        1.9130105524       10.8312251574  W2        3971            0.0000000000
      8723      2908  TIP3      H1             11.9501113709        2.7127605524       10.3304851574  W2        3971            0.0000000000
      8724      2908  TIP3      H2             11.5920213709        2.2196105524       11.7162851574  W2        3971            0.0000000000
      8725      2909  TIP3      OH2            10.5236813709      -11.3890694476       10.4469851574  W2        3972            0.0000000000
      8726      2909  TIP3      H1             10.4401613709      -10.5007594476       10.7936251574  W2        3972            0.0000000000
      8727      2909  TIP3      H2             11.4137113709      -11.6543994476       10.6786651574  W2        3972            0.0000000000
      8728      2910  TIP3      OH2             8.7822113709       -0.9618494476        9.5074351574  W2        3975            0.0000000000
      8729      2910  TIP3      H1              9.3743613709       -0.2623694476        9.7836751574  W2        3975            0.0000000000
      8730      2910  TIP3      H2              9.2415113709       -1.3948994476        8.7878951574  W2        3975            0.0000000000
      8731      2911  TIP3      OH2             7.0981313709       -8.2975494476        8.6233751574  W2        3976            0.0000000000
      8732      2911  TIP3      H1              7.0533913709       -7.3582394476        8.8020751574  W2        3976            0.0000000000
      8733      2911  TIP3      H2              6.2104513709       -8.5330594476        8.3535851574  W2        3976            0.0000000000
      8734      2912  TIP3      OH2            14.8143313709        1.4646905524        7.7824551574  W2        3982            0.0000000000
      8735      2912  TIP3      H1             14.1704313709        0.8335505524        8.1038251574  W2        3982            0.0000000000
      8736      2912  TIP3      H2             15.5761613709        0.9334905524        7.5508051574  W2        3982            0.0000000000
      8737      2913  TIP3      OH2            19.4186213709        1.2816805524        8.0162551574  W2        3984            0.0000000000
      8738      2913  TIP3      H1             19.7016613709        0.4872005524        8.4689451574  W2        3984            0.0000000000
      8739      2913  TIP3      H2             20.1584113709        1.5147805524        7.4553651574  W2        3984            0.0000000000
      8740      2914  TIP3      OH2            10.3733513709       -2.8088294476        7.8737451574  W2        3986            0.0000000000
      8741      2914  TIP3      H1             10.4377613709       -3.6028694476        8.4043851574  W2        3986            0.0000000000
      8742      2914  TIP3      H2             11.0262713709       -2.9275494476        7.1839451574  W2        3986            0.0000000000
      8743      2915  TIP3      OH2            15.7256913709       -1.7616594476        7.6095451574  W2        3988            0.0000000000
      8744      2915  TIP3      H1             15.4571013709       -1.5814494476        8.5104351574  W2        3988            0.0000000000
      8745      2915  TIP3      H2             15.5192513709       -2.6870394476        7.4781251574  W2        3988            0.0000000000
      8746      2916  TIP3      OH2            11.5227313709       -4.8362094476       10.1795451574  W2        3991            0.0000000000
      8747      2916  TIP3      H1             11.0629313709       -5.3203794476       10.8653951574  W2        3991            0.0000000000
      8748      2916  TIP3      H2             11.7776013709       -5.5046694476        9.5435951574  W2        3991            0.0000000000
      8749      2917  TIP3      OH2            12.5937713709       -6.5930294476        8.4418651574  W2        3993            0.0000000000
      8750      2917  TIP3      H1             12.4132713709       -6.7479094476        7.5146951574  W2        3993            0.0000000000
      8751      2917  TIP3      H2             13.5438213709       -6.4851594476        8.4866551574  W2        3993            0.0000000000
      8752      2918  TIP3      OH2            21.9836013709       -4.2386094476        7.8876751574  W2        3995            0.0000000000
      8753      2918  TIP3      H1             21.7100813709       -4.6630594476        7.0745051574  W2        3995            0.0000000000
      8754      2918  TIP3      H2             22.0230113709       -3.3071594476        7.6707151574  W2        3995            0.0000000000
      8755      2919  TIP3      OH2            12.4909413709        4.0973405524        9.4432251574  W2        4009            0.0000000000
      8756      2919  TIP3      H1             13.4240113709        4.2552105524        9.5870651574  W2        4009            0.0000000000
      8757      2919  TIP3      H2             12.2268213709        4.7726405524        8.8183751574  W2        4009            0.0000000000
      8758      2920  TIP3      OH2             6.0594313709       -1.2662794476        8.9260351574  W2        4010            0.0000000000
      8759      2920  TIP3      H1              6.9733513709       -1.1873894476        9.1994251574  W2        4010            0.0000000000
      8760      2920  TIP3      H2              6.0667413709       -1.9533194476        8.2595951574  W2        4010            0.0000000000
      8761      2921  TIP3      OH2            23.1047513709       -5.4152094476       10.0774151574  W2        4020            0.0000000000
      8762      2921  TIP3      H1             22.5828613709       -5.0587994476        9.3585051574  W2        4020            0.0000000000
      8763      2921  TIP3      H2             23.0716713709       -4.7404294476       10.7555051574  W2        4020            0.0000000000
      8764      2922  TIP3      OH2            21.4536513709       -8.1756494476        8.6281251574  W2        4021            0.0000000000
      8765      2922  TIP3      H1             21.5500913709       -7.5089494476        7.9480951574  W2        4021            0.0000000000
      8766      2922  TIP3      H2             21.3136113709       -8.9910194476        8.1466751574  W2        4021            0.0000000000
      8767      2923  TIP3      OH2            20.7010313709      -10.7676694476        7.7456751574  W2        4026            0.0000000000
      8768      2923  TIP3      H1             21.3116113709      -11.1389894476        8.3824951574  W2        4026            0.0000000000
      8769      2923  TIP3      H2             19.8641813709      -11.1889794476        7.9416751574  W2        4026            0.0000000000
      8770      2924  TIP3      OH2            22.8137013709      -11.8820894476        9.2878951574  W2        4036            0.0000000000
      8771      2924  TIP3      H1             23.2259613709      -12.6035194476        8.8126951574  W2        4036            0.0000000000
      8772      2924  TIP3      H2             23.4953513709      -11.2126294476        9.3463251574  W2        4036            0.0000000000
      8773      2925  TIP3      OH2             6.3710313709      -13.8345494476       10.3936251574  W2        4057            0.0000000000
      8774      2925  TIP3      H1              6.8101013709      -13.2234994476        9.8019751574  W2        4057            0.0000000000
      8775      2925  TIP3      H2              5.7372713709      -13.2961394476       10.8676251574  W2        4057            0.0000000000
      8776      2926  TIP3      OH2             8.2319413709      -11.9183994476        8.8360351574  W2        4062            0.0000000000
      8777      2926  TIP3      H1              8.7232813709      -12.5481594476        8.3085851574  W2        4062            0.0000000000
      8778      2926  TIP3      H2              8.8555713709      -11.6224594476        9.4991551574  W2        4062            0.0000000000
      8779      2927  TIP3      OH2            15.1363313709        3.3231605524        9.6887551574  W2        4064            0.0000000000
      8780      2927  TIP3      H1             16.0023513709        3.6899005524        9.5105751574  W2        4064            0.0000000000
      8781      2927  TIP3      H2             14.8896113709        2.8839605524        8.8748351574  W2        4064            0.0000000000
      8782      2928  TIP3      OH2             8.0901013709        3.0337505524        8.3163451574  W2        4068            0.0000000000
      8783      2928  TIP3      H1              7.8225613709        3.3200405524        9.1896551574  W2        4068            0.0000000000
      8784      2928  TIP3      H2              8.8613613709        2.4876705524        8.4685951574  W2        4068            0.0000000000
      8785      2929  TIP3      OH2            30.3992713709      -10.5062094476        8.0386651574  W2        4100            0.0000000000
      8786      2929  TIP3      H1             29.9683413709      -10.9511994476        8.7684051574  W2        4100            0.0000000000
      8787      2929  TIP3      H2             29.6811413709      -10.1345794476        7.5264151574  W2        4100            0.0000000000
      8788      2930  TIP3      OH2            24.9158213709      -10.0180594476       10.5145751574  W2        4102            0.0000000000
      8789      2930  TIP3      H1             25.3899913709       -9.4270694476        9.9296651574  W2        4102            0.0000000000
      8790      2930  TIP3      H2             24.1984613709       -9.4877694476       10.8615851574  W2        4102            0.0000000000
      8791      2931  TIP3      OH2            29.0174613709       -7.7289194476        9.4211051574  W2        4106            0.0000000000
      8792      2931  TIP3      H1             28.4749713709       -8.1085394476        8.7298651574  W2        4106            0.0000000000
      8793      2931  TIP3      H2             29.8509513709       -7.5344494476        8.9925151574  W2        4106            0.0000000000
      8794      2932  TIP3      OH2            25.6072813709       -5.4881194476        9.1180951574  W2        4116            0.0000000000
      8795      2932  TIP3      H1             26.2232713709       -4.8613994476        9.4975751574  W2        4116            0.0000000000
      8796      2932  TIP3      H2             24.7455413709       -5.1721394476        9.3897451574  W2        4116            0.0000000000
      8797      2933  TIP3      OH2            31.6321513709       -0.3984494476        7.6438551574  W2        4122            0.0000000000
      8798      2933  TIP3      H1             31.8711313709       -1.1466394476        7.0967451574  W2        4122            0.0000000000
      8799      2933  TIP3      H2             31.3632813709       -0.7862794476        8.4766351574  W2        4122            0.0000000000
      8800      2934  TIP3      OH2            30.5692113709       -0.8280694476       10.1001151574  W2        4123            0.0000000000
      8801      2934  TIP3      H1             30.7160113709       -1.3480894476       10.8902051574  W2        4123            0.0000000000
      8802      2934  TIP3      H2             30.5663813709        0.0786905524       10.4067051574  W2        4123            0.0000000000
      8803      2935  TIP3      OH2            27.0223213709       -3.5757394476       10.6106551574  W2        4124            0.0000000000
      8804      2935  TIP3      H1             26.3362513709       -3.2234894476       11.1776251574  W2        4124            0.0000000000
      8805      2935  TIP3      H2             27.5451113709       -2.8127794476       10.3640851574  W2        4124            0.0000000000
      8806      2936  TIP3      OH2            30.6452413709        1.9130105524       10.8312251574  W2        4126            0.0000000000
      8807      2936  TIP3      H1             30.8061113709        2.7127605524       10.3304851574  W2        4126            0.0000000000
      8808      2936  TIP3      H2             30.4480213709        2.2196105524       11.7162851574  W2        4126            0.0000000000
      8809      2937  TIP3      OH2            29.3796813709      -11.3890694476       10.4469851574  W2        4127            0.0000000000
      8810      2937  TIP3      H1             29.2961613709      -10.5007594476       10.7936251574  W2        4127            0.0000000000
      8811      2937  TIP3      H2             30.2697113709      -11.6543994476       10.6786651574  W2        4127            0.0000000000
      8812      2938  TIP3      OH2            27.6382113709       -0.9618494476        9.5074351574  W2        4128            0.0000000000
      8813      2938  TIP3      H1             28.2303613709       -0.2623694476        9.7836751574  W2        4128            0.0000000000
      8814      2938  TIP3      H2             28.0975113709       -1.3948994476        8.7878951574  W2        4128            0.0000000000
      8815      2939  TIP3      OH2            25.9541313709       -8.2975494476        8.6233751574  W2        4129            0.0000000000
      8816      2939  TIP3      H1             25.9093913709       -7.3582394476        8.8020751574  W2        4129            0.0000000000
      8817      2939  TIP3      H2             25.0664513709       -8.5330594476        8.3535851574  W2        4129            0.0000000000
      8818      2940  TIP3      OH2            29.2293513709       -2.8088294476        7.8737451574  W2        4135            0.0000000000
      8819      2940  TIP3      H1             29.2937613709       -3.6028694476        8.4043851574  W2        4135            0.0000000000
      8820      2940  TIP3      H2             29.8822713709       -2.9275494476        7.1839451574  W2        4135            0.0000000000
      8821      2941  TIP3      OH2            30.3787313709       -4.8362094476       10.1795451574  W2        4138            0.0000000000
      8822      2941  TIP3      H1             29.9189313709       -5.3203794476       10.8653951574  W2        4138            0.0000000000
      8823      2941  TIP3      H2             30.6336013709       -5.5046694476        9.5435951574  W2        4138            0.0000000000
      8824      2942  TIP3      OH2            31.4497713709       -6.5930294476        8.4418651574  W2        4140            0.0000000000
      8825      2942  TIP3      H1             31.2692713709       -6.7479094476        7.5146951574  W2        4140            0.0000000000
      8826      2942  TIP3      H2             32.3998213709       -6.4851594476        8.4866551574  W2        4140            0.0000000000
      8827      2943  TIP3      OH2            31.3469413709        4.0973405524        9.4432251574  W2        4150            0.0000000000
      8828      2943  TIP3      H1             32.2800113709        4.2552105524        9.5870651574  W2        4150            0.0000000000
      8829      2943  TIP3      H2             31.0828213709        4.7726405524        8.8183751574  W2        4150            0.0000000000
      8830      2944  TIP3      OH2            24.9154313709       -1.2662794476        8.9260351574  W2        4151            0.0000000000
      8831      2944  TIP3      H1             25.8293513709       -1.1873894476        9.1994251574  W2        4151            0.0000000000
      8832      2944  TIP3      H2             24.9227413709       -1.9533194476        8.2595951574  W2        4151            0.0000000000
      8833      2945  TIP3      OH2            25.2270313709      -13.8345494476       10.3936251574  W2        4168            0.0000000000
      8834      2945  TIP3      H1             25.6661013709      -13.2234994476        9.8019751574  W2        4168            0.0000000000
      8835      2945  TIP3      H2             24.5932713709      -13.2961394476       10.8676251574  W2        4168            0.0000000000
      8836      2946  TIP3      OH2            27.0879413709      -11.9183994476        8.8360351574  W2        4171            0.0000000000
      8837      2946  TIP3      H1             27.5792813709      -12.5481594476        8.3085851574  W2        4171            0.0000000000
      8838      2946  TIP3      H2             27.7115713709      -11.6224594476        9.4991551574  W2        4171            0.0000000000
      8839      2947  TIP3      OH2            26.9461013709        3.0337505524        8.3163451574  W2        4175            0.0000000000
      8840      2947  TIP3      H1             26.6785613709        3.3200405524        9.1896551574  W2        4175            0.0000000000
      8841      2947  TIP3      H2             27.7173613709        2.4876705524        8.4685951574  W2        4175            0.0000000000
      8842      2948  TIP3      OH2           -22.3238786291       12.0813005524        9.0392951574  W2        4206            0.0000000000
      8843      2948  TIP3      H1            -21.6228886291       12.1039905524        9.6906951574  W2        4206            0.0000000000
      8844      2948  TIP3      H2            -22.0215886291       11.4532705524        8.3832251574  W2        4206            0.0000000000
      8845      2949  TIP3      OH2           -20.1010786291       12.9954905524       10.6375051574  W2        4215            0.0000000000
      8846      2949  TIP3      H1            -19.5215286291       13.1455205524       11.3843951574  W2        4215            0.0000000000
      8847      2949  TIP3      H2            -19.6870786291       13.4662305524        9.9141451574  W2        4215            0.0000000000
      8848      2950  TIP3      OH2           -16.4022386291        4.7455305524       10.4504751574  W2        4219            0.0000000000
      8849      2950  TIP3      H1            -17.3021686291        4.8844305524       10.7455351574  W2        4219            0.0000000000
      8850      2950  TIP3      H2            -16.1503986291        5.5769905524       10.0486451574  W2        4219            0.0000000000
      8851      2951  TIP3      OH2           -15.2130986291       19.1117705524        8.8268651574  W2        4221            0.0000000000
      8852      2951  TIP3      H1            -15.1397486291       20.0507905524        8.9973951574  W2        4221            0.0000000000
      8853      2951  TIP3      H2            -14.3075886291       18.8066305524        8.7705951574  W2        4221            0.0000000000
      8854      2952  TIP3      OH2           -19.8006786291       21.8428305524        9.4899751574  W2        4228            0.0000000000
      8855      2952  TIP3      H1            -19.4258386291       21.0984405524        9.0192351574  W2        4228            0.0000000000
      8856      2952  TIP3      H2            -19.7963086291       21.5728905524       10.4083051574  W2        4228            0.0000000000
      8857      2953  TIP3      OH2           -18.6237686291       14.0283205524        8.2672951574  W2        4235            0.0000000000
      8858      2953  TIP3      H1            -18.5816886291       13.8057105524        7.3372951574  W2        4235            0.0000000000
      8859      2953  TIP3      H2            -17.7745586291       14.4270305524        8.4572851574  W2        4235            0.0000000000
      8860      2954  TIP3      OH2           -23.0510186291        7.9041405524        8.9376251574  W2        4236            0.0000000000
      8861      2954  TIP3      H1            -23.3045386291        7.9233005524        9.8604351574  W2        4236            0.0000000000
      8862      2954  TIP3      H2            -23.3078086291        7.0326805524        8.6362451574  W2        4236            0.0000000000
      8863      2955  TIP3      OH2           -26.1687286291        8.3497905524        8.0386651574  W2        4243            0.0000000000
      8864      2955  TIP3      H1            -26.5996586291        7.9048005524        8.7684051574  W2        4243            0.0000000000
      8865      2955  TIP3      H2            -26.8868586291        8.7214205524        7.5264151574  W2        4243            0.0000000000
      8866      2956  TIP3      OH2           -31.6521786291        8.8379405524       10.5145751574  W2        4245            0.0000000000
      8867      2956  TIP3      H1            -31.1780086291        9.4289305524        9.9296651574  W2        4245            0.0000000000
      8868      2956  TIP3      H2            -32.3695386291        9.3682305524       10.8615851574  W2        4245            0.0000000000
      8869      2957  TIP3      OH2           -27.5505386291       11.1270805524        9.4211051574  W2        4251            0.0000000000
      8870      2957  TIP3      H1            -28.0930286291       10.7474605524        8.7298651574  W2        4251            0.0000000000
      8871      2957  TIP3      H2            -26.7170486291       11.3215505524        8.9925151574  W2        4251            0.0000000000
      8872      2958  TIP3      OH2           -20.3175786291        8.5066405524        9.5561751574  W2        4259            0.0000000000
      8873      2958  TIP3      H1            -21.2561586291        8.6182005524        9.4050551574  W2        4259            0.0000000000
      8874      2958  TIP3      H2            -20.0203686291        9.3633305524        9.8627451574  W2        4259            0.0000000000
      8875      2959  TIP3      OH2           -22.0898486291       17.1510805524       10.3823751574  W2        4263            0.0000000000
      8876      2959  TIP3      H1            -22.3850086291       17.9778705524       10.7638551574  W2        4263            0.0000000000
      8877      2959  TIP3      H2            -22.7928486291       16.5317705524       10.5785151574  W2        4263            0.0000000000
      8878      2960  TIP3      OH2           -30.9607186291       13.3678805524        9.1180951574  W2        4272            0.0000000000
      8879      2960  TIP3      H1            -30.3447286291       13.9946005524        9.4975751574  W2        4272            0.0000000000
      8880      2960  TIP3      H2            -31.8224586291       13.6838605524        9.3897451574  W2        4272            0.0000000000
      8881      2961  TIP3      OH2           -19.0266286291       17.3459405524        9.1968551574  W2        4277            0.0000000000
      8882      2961  TIP3      H1            -18.6733186291       16.9659205524       10.0012051574  W2        4277            0.0000000000
      8883      2961  TIP3      H2            -19.9752786291       17.2524205524        9.2837851574  W2        4277            0.0000000000
      8884      2962  TIP3      OH2           -14.5231886291       21.8251905524        9.3978751574  W2        4279            0.0000000000
      8885      2962  TIP3      H1            -13.7793986291       22.4112405524        9.2580351574  W2        4279            0.0000000000
      8886      2962  TIP3      H2            -15.2173786291       22.3937705524        9.7311151574  W2        4279            0.0000000000
      8887      2963  TIP3      OH2           -24.9358486291       18.4575505524        7.6438551574  W2        4283            0.0000000000
      8888      2963  TIP3      H1            -24.6968686291       17.7093605524        7.0967451574  W2        4283            0.0000000000
      8889      2963  TIP3      H2            -25.2047186291       18.0697205524        8.4766351574  W2        4283            0.0000000000
      8890      2964  TIP3      OH2           -25.9987886291       18.0279305524       10.1001151574  W2        4284            0.0000000000
      8891      2964  TIP3      H1            -25.8519886291       17.5079105524       10.8902051574  W2        4284            0.0000000000
      8892      2964  TIP3      H2            -26.0016186291       18.9346905524       10.4067051574  W2        4284            0.0000000000
      8893      2965  TIP3      OH2           -29.5456786291       15.2802605524       10.6106551574  W2        4285            0.0000000000
      8894      2965  TIP3      H1            -30.2317486291       15.6325105524       11.1776251574  W2        4285            0.0000000000
      8895      2965  TIP3      H2            -29.0228886291       16.0432205524       10.3640851574  W2        4285            0.0000000000
      8896      2966  TIP3      OH2           -23.2610686291       19.7252905524       10.8495351574  W2        4288            0.0000000000
      8897      2966  TIP3      H1            -24.0774586291       20.2222605524       10.9019651574  W2        4288            0.0000000000
      8898      2966  TIP3      H2            -22.7314386291       20.2006405524       10.2094151574  W2        4288            0.0000000000
      8899      2967  TIP3      OH2           -25.9227586291       20.7690105524       10.8312251574  W2        4292            0.0000000000
      8900      2967  TIP3      H1            -25.7618886291       21.5687605524       10.3304851574  W2        4292            0.0000000000
      8901      2967  TIP3      H2            -26.1199786291       21.0756105524       11.7162851574  W2        4292            0.0000000000
      8902      2968  TIP3      OH2           -27.1883186291        7.4669305524       10.4469851574  W2        4293            0.0000000000
      8903      2968  TIP3      H1            -27.2718386291        8.3552405524       10.7936251574  W2        4293            0.0000000000
      8904      2968  TIP3      H2            -26.2982886291        7.2016005524       10.6786651574  W2        4293            0.0000000000
      8905      2969  TIP3      OH2           -28.9297886291       17.8941505524        9.5074351574  W2        4296            0.0000000000
      8906      2969  TIP3      H1            -28.3376386291       18.5936305524        9.7836751574  W2        4296            0.0000000000
      8907      2969  TIP3      H2            -28.4704886291       17.4611005524        8.7878951574  W2        4296            0.0000000000
      8908      2970  TIP3      OH2           -30.6138686291       10.5584505524        8.6233751574  W2        4297            0.0000000000
      8909      2970  TIP3      H1            -30.6586086291       11.4977605524        8.8020751574  W2        4297            0.0000000000
      8910      2970  TIP3      H2            -31.5015486291       10.3229405524        8.3535851574  W2        4297            0.0000000000
      8911      2971  TIP3      OH2           -22.8976686291       20.3206905524        7.7824551574  W2        4303            0.0000000000
      8912      2971  TIP3      H1            -23.5415686291       19.6895505524        8.1038251574  W2        4303            0.0000000000
      8913      2971  TIP3      H2            -22.1358386291       19.7894905524        7.5508051574  W2        4303            0.0000000000
      8914      2972  TIP3      OH2           -18.2933786291       20.1376805524        8.0162551574  W2        4305            0.0000000000
      8915      2972  TIP3      H1            -18.0103386291       19.3432005524        8.4689451574  W2        4305            0.0000000000
      8916      2972  TIP3      H2            -17.5535886291       20.3707805524        7.4553651574  W2        4305            0.0000000000
      8917      2973  TIP3      OH2           -27.3386486291       16.0471705524        7.8737451574  W2        4307            0.0000000000
      8918      2973  TIP3      H1            -27.2742386291       15.2531305524        8.4043851574  W2        4307            0.0000000000
      8919      2973  TIP3      H2            -26.6857286291       15.9284505524        7.1839451574  W2        4307            0.0000000000
      8920      2974  TIP3      OH2           -21.9863086291       17.0943405524        7.6095451574  W2        4309            0.0000000000
      8921      2974  TIP3      H1            -22.2548986291       17.2745505524        8.5104351574  W2        4309            0.0000000000
      8922      2974  TIP3      H2            -22.1927486291       16.1689605524        7.4781251574  W2        4309            0.0000000000
      8923      2975  TIP3      OH2           -26.1892686291       14.0197905524       10.1795451574  W2        4312            0.0000000000
      8924      2975  TIP3      H1            -26.6490686291       13.5356205524       10.8653951574  W2        4312            0.0000000000
      8925      2975  TIP3      H2            -25.9343986291       13.3513305524        9.5435951574  W2        4312            0.0000000000
      8926      2976  TIP3      OH2           -25.1182286291       12.2629705524        8.4418651574  W2        4314            0.0000000000
      8927      2976  TIP3      H1            -25.2987286291       12.1080905524        7.5146951574  W2        4314            0.0000000000
      8928      2976  TIP3      H2            -24.1681786291       12.3708405524        8.4866551574  W2        4314            0.0000000000
      8929      2977  TIP3      OH2           -15.7283986291       14.6173905524        7.8876751574  W2        4316            0.0000000000
      8930      2977  TIP3      H1            -16.0019186291       14.1929405524        7.0745051574  W2        4316            0.0000000000
      8931      2977  TIP3      H2            -15.6889886291       15.5488405524        7.6707151574  W2        4316            0.0000000000
      8932      2978  TIP3      OH2           -25.2210586291       22.9533405524        9.4432251574  W2        4330            0.0000000000
      8933      2978  TIP3      H1            -24.2879886291       23.1112105524        9.5870651574  W2        4330            0.0000000000
      8934      2978  TIP3      H2            -25.4851786291       23.6286405524        8.8183751574  W2        4330            0.0000000000
      8935      2979  TIP3      OH2           -31.6525686291       17.5897205524        8.9260351574  W2        4331            0.0000000000
      8936      2979  TIP3      H1            -30.7386486291       17.6686105524        9.1994251574  W2        4331            0.0000000000
      8937      2979  TIP3      H2            -31.6452586291       16.9026805524        8.2595951574  W2        4331            0.0000000000
      8938      2980  TIP3      OH2           -14.6072486291       13.4407905524       10.0774151574  W2        4341            0.0000000000
      8939      2980  TIP3      H1            -15.1291386291       13.7972005524        9.3585051574  W2        4341            0.0000000000
      8940      2980  TIP3      H2            -14.6403286291       14.1155705524       10.7555051574  W2        4341            0.0000000000
      8941      2981  TIP3      OH2           -16.2583486291       10.6803505524        8.6281251574  W2        4342            0.0000000000
      8942      2981  TIP3      H1            -16.1619086291       11.3470505524        7.9480951574  W2        4342            0.0000000000
      8943      2981  TIP3      H2            -16.3983886291        9.8649805524        8.1466751574  W2        4342            0.0000000000
      8944      2982  TIP3      OH2           -17.0109686291        8.0883305524        7.7456751574  W2        4347            0.0000000000
      8945      2982  TIP3      H1            -16.4003886291        7.7170105524        8.3824951574  W2        4347            0.0000000000
      8946      2982  TIP3      H2            -17.8478186291        7.6670205524        7.9416751574  W2        4347            0.0000000000
      8947      2983  TIP3      OH2           -14.8982986291        6.9739105524        9.2878951574  W2        4357            0.0000000000
      8948      2983  TIP3      H1            -14.4860386291        6.2524805524        8.8126951574  W2        4357            0.0000000000
      8949      2983  TIP3      H2            -14.2166486291        7.6433705524        9.3463251574  W2        4357            0.0000000000
      8950      2984  TIP3      OH2           -31.3409686291        5.0214505524       10.3936251574  W2        4378            0.0000000000
      8951      2984  TIP3      H1            -30.9018986291        5.6325005524        9.8019751574  W2        4378            0.0000000000
      8952      2984  TIP3      H2            -31.9747286291        5.5598605524       10.8676251574  W2        4378            0.0000000000
      8953      2985  TIP3      OH2           -29.4800586291        6.9376005524        8.8360351574  W2        4383            0.0000000000
      8954      2985  TIP3      H1            -28.9887186291        6.3078405524        8.3085851574  W2        4383            0.0000000000
      8955      2985  TIP3      H2            -28.8564286291        7.2335405524        9.4991551574  W2        4383            0.0000000000
      8956      2986  TIP3      OH2           -22.5756686291       22.1791605524        9.6887551574  W2        4385            0.0000000000
      8957      2986  TIP3      H1            -21.7096486291       22.5459005524        9.5105751574  W2        4385            0.0000000000
      8958      2986  TIP3      H2            -22.8223886291       21.7399605524        8.8748351574  W2        4385            0.0000000000
      8959      2987  TIP3      OH2           -29.6218986291       21.8897505524        8.3163451574  W2        4389            0.0000000000
      8960      2987  TIP3      H1            -29.8894386291       22.1760405524        9.1896551574  W2        4389            0.0000000000
      8961      2987  TIP3      H2            -28.8506386291       21.3436705524        8.4685951574  W2        4389            0.0000000000
      8962      2988  TIP3      OH2            -3.4678786291       12.0813005524        9.0392951574  W2        4422            0.0000000000
      8963      2988  TIP3      H1             -2.7668886291       12.1039905524        9.6906951574  W2        4422            0.0000000000
      8964      2988  TIP3      H2             -3.1655886291       11.4532705524        8.3832251574  W2        4422            0.0000000000
      8965      2989  TIP3      OH2            -1.2450786291       12.9954905524       10.6375051574  W2        4431            0.0000000000
      8966      2989  TIP3      H1             -0.6655286291       13.1455205524       11.3843951574  W2        4431            0.0000000000
      8967      2989  TIP3      H2             -0.8310786291       13.4662305524        9.9141451574  W2        4431            0.0000000000
      8968      2990  TIP3      OH2             2.4537613709        4.7455305524       10.4504751574  W2        4435            0.0000000000
      8969      2990  TIP3      H1              1.5538313709        4.8844305524       10.7455351574  W2        4435            0.0000000000
      8970      2990  TIP3      H2              2.7056013709        5.5769905524       10.0486451574  W2        4435            0.0000000000
      8971      2991  TIP3      OH2             3.6429013709       19.1117705524        8.8268651574  W2        4437            0.0000000000
      8972      2991  TIP3      H1              3.7162513709       20.0507905524        8.9973951574  W2        4437            0.0000000000
      8973      2991  TIP3      H2              4.5484113709       18.8066305524        8.7705951574  W2        4437            0.0000000000
      8974      2992  TIP3      OH2            -0.9446786291       21.8428305524        9.4899751574  W2        4444            0.0000000000
      8975      2992  TIP3      H1             -0.5698386291       21.0984405524        9.0192351574  W2        4444            0.0000000000
      8976      2992  TIP3      H2             -0.9403086291       21.5728905524       10.4083051574  W2        4444            0.0000000000
      8977      2993  TIP3      OH2             0.2322313709       14.0283205524        8.2672951574  W2        4451            0.0000000000
      8978      2993  TIP3      H1              0.2743113709       13.8057105524        7.3372951574  W2        4451            0.0000000000
      8979      2993  TIP3      H2              1.0814413709       14.4270305524        8.4572851574  W2        4451            0.0000000000
      8980      2994  TIP3      OH2            -4.1950186291        7.9041405524        8.9376251574  W2        4452            0.0000000000
      8981      2994  TIP3      H1             -4.4485386291        7.9233005524        9.8604351574  W2        4452            0.0000000000
      8982      2994  TIP3      H2             -4.4518086291        7.0326805524        8.6362451574  W2        4452            0.0000000000
      8983      2995  TIP3      OH2            -7.3127286291        8.3497905524        8.0386651574  W2        4459            0.0000000000
      8984      2995  TIP3      H1             -7.7436586291        7.9048005524        8.7684051574  W2        4459            0.0000000000
      8985      2995  TIP3      H2             -8.0308586291        8.7214205524        7.5264151574  W2        4459            0.0000000000
      8986      2996  TIP3      OH2           -12.7961786291        8.8379405524       10.5145751574  W2        4461            0.0000000000
      8987      2996  TIP3      H1            -12.3220086291        9.4289305524        9.9296651574  W2        4461            0.0000000000
      8988      2996  TIP3      H2            -13.5135386291        9.3682305524       10.8615851574  W2        4461            0.0000000000
      8989      2997  TIP3      OH2            -8.6945386291       11.1270805524        9.4211051574  W2        4467            0.0000000000
      8990      2997  TIP3      H1             -9.2370286291       10.7474605524        8.7298651574  W2        4467            0.0000000000
      8991      2997  TIP3      H2             -7.8610486291       11.3215505524        8.9925151574  W2        4467            0.0000000000
      8992      2998  TIP3      OH2            -1.4615786291        8.5066405524        9.5561751574  W2        4475            0.0000000000
      8993      2998  TIP3      H1             -2.4001586291        8.6182005524        9.4050551574  W2        4475            0.0000000000
      8994      2998  TIP3      H2             -1.1643686291        9.3633305524        9.8627451574  W2        4475            0.0000000000
      8995      2999  TIP3      OH2            -3.2338486291       17.1510805524       10.3823751574  W2        4479            0.0000000000
      8996      2999  TIP3      H1             -3.5290086291       17.9778705524       10.7638551574  W2        4479            0.0000000000
      8997      2999  TIP3      H2             -3.9368486291       16.5317705524       10.5785151574  W2        4479            0.0000000000
      8998      3000  TIP3      OH2           -12.1047186291       13.3678805524        9.1180951574  W2        4488            0.0000000000
      8999      3000  TIP3      H1            -11.4887286291       13.9946005524        9.4975751574  W2        4488            0.0000000000
      9000      3000  TIP3      H2            -12.9664586291       13.6838605524        9.3897451574  W2        4488            0.0000000000
      9001      3001  TIP3      OH2            -0.1706286291       17.3459405524        9.1968551574  W2        4493            0.0000000000
      9002      3001  TIP3      H1              0.1826813709       16.9659205524       10.0012051574  W2        4493            0.0000000000
      9003      3001  TIP3      H2             -1.1192786291       17.2524205524        9.2837851574  W2        4493            0.0000000000
      9004      3002  TIP3      OH2             4.3328113709       21.8251905524        9.3978751574  W2        4495            0.0000000000
      9005      3002  TIP3      H1              5.0766013709       22.4112405524        9.2580351574  W2        4495            0.0000000000
      9006      3002  TIP3      H2              3.6386213709       22.3937705524        9.7311151574  W2        4495            0.0000000000
      9007      3003  TIP3      OH2            -6.0798486291       18.4575505524        7.6438551574  W2        4499            0.0000000000
      9008      3003  TIP3      H1             -5.8408686291       17.7093605524        7.0967451574  W2        4499            0.0000000000
      9009      3003  TIP3      H2             -6.3487186291       18.0697205524        8.4766351574  W2        4499            0.0000000000
      9010      3004  TIP3      OH2            -7.1427886291       18.0279305524       10.1001151574  W2        4500            0.0000000000
      9011      3004  TIP3      H1             -6.9959886291       17.5079105524       10.8902051574  W2        4500            0.0000000000
      9012      3004  TIP3      H2             -7.1456186291       18.9346905524       10.4067051574  W2        4500            0.0000000000
      9013      3005  TIP3      OH2           -10.6896786291       15.2802605524       10.6106551574  W2        4501            0.0000000000
      9014      3005  TIP3      H1            -11.3757486291       15.6325105524       11.1776251574  W2        4501            0.0000000000
      9015      3005  TIP3      H2            -10.1668886291       16.0432205524       10.3640851574  W2        4501            0.0000000000
      9016      3006  TIP3      OH2            -4.4050686291       19.7252905524       10.8495351574  W2        4504            0.0000000000
      9017      3006  TIP3      H1             -5.2214586291       20.2222605524       10.9019651574  W2        4504            0.0000000000
      9018      3006  TIP3      H2             -3.8754386291       20.2006405524       10.2094151574  W2        4504            0.0000000000
      9019      3007  TIP3      OH2            -7.0667586291       20.7690105524       10.8312251574  W2        4508            0.0000000000
      9020      3007  TIP3      H1             -6.9058886291       21.5687605524       10.3304851574  W2        4508            0.0000000000
      9021      3007  TIP3      H2             -7.2639786291       21.0756105524       11.7162851574  W2        4508            0.0000000000
      9022      3008  TIP3      OH2            -8.3323186291        7.4669305524       10.4469851574  W2        4509            0.0000000000
      9023      3008  TIP3      H1             -8.4158386291        8.3552405524       10.7936251574  W2        4509            0.0000000000
      9024      3008  TIP3      H2             -7.4422886291        7.2016005524       10.6786651574  W2        4509            0.0000000000
      9025      3009  TIP3      OH2           -10.0737886291       17.8941505524        9.5074351574  W2        4512            0.0000000000
      9026      3009  TIP3      H1             -9.4816386291       18.5936305524        9.7836751574  W2        4512            0.0000000000
      9027      3009  TIP3      H2             -9.6144886291       17.4611005524        8.7878951574  W2        4512            0.0000000000
      9028      3010  TIP3      OH2           -11.7578686291       10.5584505524        8.6233751574  W2        4513            0.0000000000
      9029      3010  TIP3      H1            -11.8026086291       11.4977605524        8.8020751574  W2        4513            0.0000000000
      9030      3010  TIP3      H2            -12.6455486291       10.3229405524        8.3535851574  W2        4513            0.0000000000
      9031      3011  TIP3      OH2            -4.0416686291       20.3206905524        7.7824551574  W2        4519            0.0000000000
      9032      3011  TIP3      H1             -4.6855686291       19.6895505524        8.1038251574  W2        4519            0.0000000000
      9033      3011  TIP3      H2             -3.2798386291       19.7894905524        7.5508051574  W2        4519            0.0000000000
      9034      3012  TIP3      OH2             0.5626213709       20.1376805524        8.0162551574  W2        4521            0.0000000000
      9035      3012  TIP3      H1              0.8456613709       19.3432005524        8.4689451574  W2        4521            0.0000000000
      9036      3012  TIP3      H2              1.3024113709       20.3707805524        7.4553651574  W2        4521            0.0000000000
      9037      3013  TIP3      OH2            -8.4826486291       16.0471705524        7.8737451574  W2        4523            0.0000000000
      9038      3013  TIP3      H1             -8.4182386291       15.2531305524        8.4043851574  W2        4523            0.0000000000
      9039      3013  TIP3      H2             -7.8297286291       15.9284505524        7.1839451574  W2        4523            0.0000000000
      9040      3014  TIP3      OH2            -3.1303086291       17.0943405524        7.6095451574  W2        4525            0.0000000000
      9041      3014  TIP3      H1             -3.3988986291       17.2745505524        8.5104351574  W2        4525            0.0000000000
      9042      3014  TIP3      H2             -3.3367486291       16.1689605524        7.4781251574  W2        4525            0.0000000000
      9043      3015  TIP3      OH2            -7.3332686291       14.0197905524       10.1795451574  W2        4528            0.0000000000
      9044      3015  TIP3      H1             -7.7930686291       13.5356205524       10.8653951574  W2        4528            0.0000000000
      9045      3015  TIP3      H2             -7.0783986291       13.3513305524        9.5435951574  W2        4528            0.0000000000
      9046      3016  TIP3      OH2            -6.2622286291       12.2629705524        8.4418651574  W2        4530            0.0000000000
      9047      3016  TIP3      H1             -6.4427286291       12.1080905524        7.5146951574  W2        4530            0.0000000000
      9048      3016  TIP3      H2             -5.3121786291       12.3708405524        8.4866551574  W2        4530            0.0000000000
      9049      3017  TIP3      OH2             3.1276013709       14.6173905524        7.8876751574  W2        4532            0.0000000000
      9050      3017  TIP3      H1              2.8540813709       14.1929405524        7.0745051574  W2        4532            0.0000000000
      9051      3017  TIP3      H2              3.1670113709       15.5488405524        7.6707151574  W2        4532            0.0000000000
      9052      3018  TIP3      OH2            -6.3650586291       22.9533405524        9.4432251574  W2        4546            0.0000000000
      9053      3018  TIP3      H1             -5.4319886291       23.1112105524        9.5870651574  W2        4546            0.0000000000
      9054      3018  TIP3      H2             -6.6291786291       23.6286405524        8.8183751574  W2        4546            0.0000000000
      9055      3019  TIP3      OH2           -12.7965686291       17.5897205524        8.9260351574  W2        4547            0.0000000000
      9056      3019  TIP3      H1            -11.8826486291       17.6686105524        9.1994251574  W2        4547            0.0000000000
      9057      3019  TIP3      H2            -12.7892586291       16.9026805524        8.2595951574  W2        4547            0.0000000000
      9058      3020  TIP3      OH2             4.2487513709       13.4407905524       10.0774151574  W2        4557            0.0000000000
      9059      3020  TIP3      H1              3.7268613709       13.7972005524        9.3585051574  W2        4557            0.0000000000
      9060      3020  TIP3      H2              4.2156713709       14.1155705524       10.7555051574  W2        4557            0.0000000000
      9061      3021  TIP3      OH2             2.5976513709       10.6803505524        8.6281251574  W2        4558            0.0000000000
      9062      3021  TIP3      H1              2.6940913709       11.3470505524        7.9480951574  W2        4558            0.0000000000
      9063      3021  TIP3      H2              2.4576113709        9.8649805524        8.1466751574  W2        4558            0.0000000000
      9064      3022  TIP3      OH2             1.8450313709        8.0883305524        7.7456751574  W2        4563            0.0000000000
      9065      3022  TIP3      H1              2.4556113709        7.7170105524        8.3824951574  W2        4563            0.0000000000
      9066      3022  TIP3      H2              1.0081813709        7.6670205524        7.9416751574  W2        4563            0.0000000000
      9067      3023  TIP3      OH2             3.9577013709        6.9739105524        9.2878951574  W2        4573            0.0000000000
      9068      3023  TIP3      H1              4.3699613709        6.2524805524        8.8126951574  W2        4573            0.0000000000
      9069      3023  TIP3      H2              4.6393513709        7.6433705524        9.3463251574  W2        4573            0.0000000000
      9070      3024  TIP3      OH2           -12.4849686291        5.0214505524       10.3936251574  W2        4594            0.0000000000
      9071      3024  TIP3      H1            -12.0458986291        5.6325005524        9.8019751574  W2        4594            0.0000000000
      9072      3024  TIP3      H2            -13.1187286291        5.5598605524       10.8676251574  W2        4594            0.0000000000
      9073      3025  TIP3      OH2           -10.6240586291        6.9376005524        8.8360351574  W2        4599            0.0000000000
      9074      3025  TIP3      H1            -10.1327186291        6.3078405524        8.3085851574  W2        4599            0.0000000000
      9075      3025  TIP3      H2            -10.0004286291        7.2335405524        9.4991551574  W2        4599            0.0000000000
      9076      3026  TIP3      OH2            -3.7196686291       22.1791605524        9.6887551574  W2        4601            0.0000000000
      9077      3026  TIP3      H1             -2.8536486291       22.5459005524        9.5105751574  W2        4601            0.0000000000
      9078      3026  TIP3      H2             -3.9663886291       21.7399605524        8.8748351574  W2        4601            0.0000000000
      9079      3027  TIP3      OH2           -10.7658986291       21.8897505524        8.3163451574  W2        4605            0.0000000000
      9080      3027  TIP3      H1            -11.0334386291       22.1760405524        9.1896551574  W2        4605            0.0000000000
      9081      3027  TIP3      H2             -9.9946386291       21.3436705524        8.4685951574  W2        4605            0.0000000000
      9082      3028  TIP3      OH2            15.3881213709       12.0813005524        9.0392951574  W2        4638            0.0000000000
      9083      3028  TIP3      H1             16.0891113709       12.1039905524        9.6906951574  W2        4638            0.0000000000
      9084      3028  TIP3      H2             15.6904113709       11.4532705524        8.3832251574  W2        4638            0.0000000000
      9085      3029  TIP3      OH2            17.6109213709       12.9954905524       10.6375051574  W2        4647            0.0000000000
      9086      3029  TIP3      H1             18.1904713709       13.1455205524       11.3843951574  W2        4647            0.0000000000
      9087      3029  TIP3      H2             18.0249213709       13.4662305524        9.9141451574  W2        4647            0.0000000000
      9088      3030  TIP3      OH2            21.3097613709        4.7455305524       10.4504751574  W2        4651            0.0000000000
      9089      3030  TIP3      H1             20.4098313709        4.8844305524       10.7455351574  W2        4651            0.0000000000
      9090      3030  TIP3      H2             21.5616013709        5.5769905524       10.0486451574  W2        4651            0.0000000000
      9091      3031  TIP3      OH2            22.4989013709       19.1117705524        8.8268651574  W2        4653            0.0000000000
      9092      3031  TIP3      H1             22.5722513709       20.0507905524        8.9973951574  W2        4653            0.0000000000
      9093      3031  TIP3      H2             23.4044113709       18.8066305524        8.7705951574  W2        4653            0.0000000000
      9094      3032  TIP3      OH2            17.9113213709       21.8428305524        9.4899751574  W2        4660            0.0000000000
      9095      3032  TIP3      H1             18.2861613709       21.0984405524        9.0192351574  W2        4660            0.0000000000
      9096      3032  TIP3      H2             17.9156913709       21.5728905524       10.4083051574  W2        4660            0.0000000000
      9097      3033  TIP3      OH2            19.0882313709       14.0283205524        8.2672951574  W2        4667            0.0000000000
      9098      3033  TIP3      H1             19.1303113709       13.8057105524        7.3372951574  W2        4667            0.0000000000
      9099      3033  TIP3      H2             19.9374413709       14.4270305524        8.4572851574  W2        4667            0.0000000000
      9100      3034  TIP3      OH2            14.6609813709        7.9041405524        8.9376251574  W2        4668            0.0000000000
      9101      3034  TIP3      H1             14.4074613709        7.9233005524        9.8604351574  W2        4668            0.0000000000
      9102      3034  TIP3      H2             14.4041913709        7.0326805524        8.6362451574  W2        4668            0.0000000000
      9103      3035  TIP3      OH2            11.5432713709        8.3497905524        8.0386651574  W2        4675            0.0000000000
      9104      3035  TIP3      H1             11.1123413709        7.9048005524        8.7684051574  W2        4675            0.0000000000
      9105      3035  TIP3      H2             10.8251413709        8.7214205524        7.5264151574  W2        4675            0.0000000000
      9106      3036  TIP3      OH2             6.0598213709        8.8379405524       10.5145751574  W2        4677            0.0000000000
      9107      3036  TIP3      H1              6.5339913709        9.4289305524        9.9296651574  W2        4677            0.0000000000
      9108      3036  TIP3      H2              5.3424613709        9.3682305524       10.8615851574  W2        4677            0.0000000000
      9109      3037  TIP3      OH2            10.1614613709       11.1270805524        9.4211051574  W2        4683            0.0000000000
      9110      3037  TIP3      H1              9.6189713709       10.7474605524        8.7298651574  W2        4683            0.0000000000
      9111      3037  TIP3      H2             10.9949513709       11.3215505524        8.9925151574  W2        4683            0.0000000000
      9112      3038  TIP3      OH2            17.3944213709        8.5066405524        9.5561751574  W2        4691            0.0000000000
      9113      3038  TIP3      H1             16.4558413709        8.6182005524        9.4050551574  W2        4691            0.0000000000
      9114      3038  TIP3      H2             17.6916313709        9.3633305524        9.8627451574  W2        4691            0.0000000000
      9115      3039  TIP3      OH2            15.6221513709       17.1510805524       10.3823751574  W2        4695            0.0000000000
      9116      3039  TIP3      H1             15.3269913709       17.9778705524       10.7638551574  W2        4695            0.0000000000
      9117      3039  TIP3      H2             14.9191513709       16.5317705524       10.5785151574  W2        4695            0.0000000000
      9118      3040  TIP3      OH2             6.7512813709       13.3678805524        9.1180951574  W2        4704            0.0000000000
      9119      3040  TIP3      H1              7.3672713709       13.9946005524        9.4975751574  W2        4704            0.0000000000
      9120      3040  TIP3      H2              5.8895413709       13.6838605524        9.3897451574  W2        4704            0.0000000000
      9121      3041  TIP3      OH2            18.6853713709       17.3459405524        9.1968551574  W2        4709            0.0000000000
      9122      3041  TIP3      H1             19.0386813709       16.9659205524       10.0012051574  W2        4709            0.0000000000
      9123      3041  TIP3      H2             17.7367213709       17.2524205524        9.2837851574  W2        4709            0.0000000000
      9124      3042  TIP3      OH2            23.1888113709       21.8251905524        9.3978751574  W2        4711            0.0000000000
      9125      3042  TIP3      H1             23.9326013709       22.4112405524        9.2580351574  W2        4711            0.0000000000
      9126      3042  TIP3      H2             22.4946213709       22.3937705524        9.7311151574  W2        4711            0.0000000000
      9127      3043  TIP3      OH2            12.7761513709       18.4575505524        7.6438551574  W2        4715            0.0000000000
      9128      3043  TIP3      H1             13.0151313709       17.7093605524        7.0967451574  W2        4715            0.0000000000
      9129      3043  TIP3      H2             12.5072813709       18.0697205524        8.4766351574  W2        4715            0.0000000000
      9130      3044  TIP3      OH2            11.7132113709       18.0279305524       10.1001151574  W2        4716            0.0000000000
      9131      3044  TIP3      H1             11.8600113709       17.5079105524       10.8902051574  W2        4716            0.0000000000
      9132      3044  TIP3      H2             11.7103813709       18.9346905524       10.4067051574  W2        4716            0.0000000000
      9133      3045  TIP3      OH2             8.1663213709       15.2802605524       10.6106551574  W2        4717            0.0000000000
      9134      3045  TIP3      H1              7.4802513709       15.6325105524       11.1776251574  W2        4717            0.0000000000
      9135      3045  TIP3      H2              8.6891113709       16.0432205524       10.3640851574  W2        4717            0.0000000000
      9136      3046  TIP3      OH2            14.4509313709       19.7252905524       10.8495351574  W2        4720            0.0000000000
      9137      3046  TIP3      H1             13.6345413709       20.2222605524       10.9019651574  W2        4720            0.0000000000
      9138      3046  TIP3      H2             14.9805613709       20.2006405524       10.2094151574  W2        4720            0.0000000000
      9139      3047  TIP3      OH2            11.7892413709       20.7690105524       10.8312251574  W2        4724            0.0000000000
      9140      3047  TIP3      H1             11.9501113709       21.5687605524       10.3304851574  W2        4724            0.0000000000
      9141      3047  TIP3      H2             11.5920213709       21.0756105524       11.7162851574  W2        4724            0.0000000000
      9142      3048  TIP3      OH2            10.5236813709        7.4669305524       10.4469851574  W2        4725            0.0000000000
      9143      3048  TIP3      H1             10.4401613709        8.3552405524       10.7936251574  W2        4725            0.0000000000
      9144      3048  TIP3      H2             11.4137113709        7.2016005524       10.6786651574  W2        4725            0.0000000000
      9145      3049  TIP3      OH2             8.7822113709       17.8941505524        9.5074351574  W2        4728            0.0000000000
      9146      3049  TIP3      H1              9.3743613709       18.5936305524        9.7836751574  W2        4728            0.0000000000
      9147      3049  TIP3      H2              9.2415113709       17.4611005524        8.7878951574  W2        4728            0.0000000000
      9148      3050  TIP3      OH2             7.0981313709       10.5584505524        8.6233751574  W2        4729            0.0000000000
      9149      3050  TIP3      H1              7.0533913709       11.4977605524        8.8020751574  W2        4729            0.0000000000
      9150      3050  TIP3      H2              6.2104513709       10.3229405524        8.3535851574  W2        4729            0.0000000000
      9151      3051  TIP3      OH2            14.8143313709       20.3206905524        7.7824551574  W2        4735            0.0000000000
      9152      3051  TIP3      H1             14.1704313709       19.6895505524        8.1038251574  W2        4735            0.0000000000
      9153      3051  TIP3      H2             15.5761613709       19.7894905524        7.5508051574  W2        4735            0.0000000000
      9154      3052  TIP3      OH2            19.4186213709       20.1376805524        8.0162551574  W2        4737            0.0000000000
      9155      3052  TIP3      H1             19.7016613709       19.3432005524        8.4689451574  W2        4737            0.0000000000
      9156      3052  TIP3      H2             20.1584113709       20.3707805524        7.4553651574  W2        4737            0.0000000000
      9157      3053  TIP3      OH2            10.3733513709       16.0471705524        7.8737451574  W2        4739            0.0000000000
      9158      3053  TIP3      H1             10.4377613709       15.2531305524        8.4043851574  W2        4739            0.0000000000
      9159      3053  TIP3      H2             11.0262713709       15.9284505524        7.1839451574  W2        4739            0.0000000000
      9160      3054  TIP3      OH2            15.7256913709       17.0943405524        7.6095451574  W2        4741            0.0000000000
      9161      3054  TIP3      H1             15.4571013709       17.2745505524        8.5104351574  W2        4741            0.0000000000
      9162      3054  TIP3      H2             15.5192513709       16.1689605524        7.4781251574  W2        4741            0.0000000000
      9163      3055  TIP3      OH2            11.5227313709       14.0197905524       10.1795451574  W2        4744            0.0000000000
      9164      3055  TIP3      H1             11.0629313709       13.5356205524       10.8653951574  W2        4744            0.0000000000
      9165      3055  TIP3      H2             11.7776013709       13.3513305524        9.5435951574  W2        4744            0.0000000000
      9166      3056  TIP3      OH2            12.5937713709       12.2629705524        8.4418651574  W2        4746            0.0000000000
      9167      3056  TIP3      H1             12.4132713709       12.1080905524        7.5146951574  W2        4746            0.0000000000
      9168      3056  TIP3      H2             13.5438213709       12.3708405524        8.4866551574  W2        4746            0.0000000000
      9169      3057  TIP3      OH2            21.9836013709       14.6173905524        7.8876751574  W2        4748            0.0000000000
      9170      3057  TIP3      H1             21.7100813709       14.1929405524        7.0745051574  W2        4748            0.0000000000
      9171      3057  TIP3      H2             22.0230113709       15.5488405524        7.6707151574  W2        4748            0.0000000000
      9172      3058  TIP3      OH2            12.4909413709       22.9533405524        9.4432251574  W2        4762            0.0000000000
      9173      3058  TIP3      H1             13.4240113709       23.1112105524        9.5870651574  W2        4762            0.0000000000
      9174      3058  TIP3      H2             12.2268213709       23.6286405524        8.8183751574  W2        4762            0.0000000000
      9175      3059  TIP3      OH2             6.0594313709       17.5897205524        8.9260351574  W2        4763            0.0000000000
      9176      3059  TIP3      H1              6.9733513709       17.6686105524        9.1994251574  W2        4763            0.0000000000
      9177      3059  TIP3      H2              6.0667413709       16.9026805524        8.2595951574  W2        4763            0.0000000000
      9178      3060  TIP3      OH2            23.1047513709       13.4407905524       10.0774151574  W2        4773            0.0000000000
      9179      3060  TIP3      H1             22.5828613709       13.7972005524        9.3585051574  W2        4773            0.0000000000
      9180      3060  TIP3      H2             23.0716713709       14.1155705524       10.7555051574  W2        4773            0.0000000000
      9181      3061  TIP3      OH2            21.4536513709       10.6803505524        8.6281251574  W2        4774            0.0000000000
      9182      3061  TIP3      H1             21.5500913709       11.3470505524        7.9480951574  W2        4774            0.0000000000
      9183      3061  TIP3      H2             21.3136113709        9.8649805524        8.1466751574  W2        4774            0.0000000000
      9184      3062  TIP3      OH2            20.7010313709        8.0883305524        7.7456751574  W2        4779            0.0000000000
      9185      3062  TIP3      H1             21.3116113709        7.7170105524        8.3824951574  W2        4779            0.0000000000
      9186      3062  TIP3      H2             19.8641813709        7.6670205524        7.9416751574  W2        4779            0.0000000000
      9187      3063  TIP3      OH2            22.8137013709        6.9739105524        9.2878951574  W2        4789            0.0000000000
      9188      3063  TIP3      H1             23.2259613709        6.2524805524        8.8126951574  W2        4789            0.0000000000
      9189      3063  TIP3      H2             23.4953513709        7.6433705524        9.3463251574  W2        4789            0.0000000000
      9190      3064  TIP3      OH2             6.3710313709        5.0214505524       10.3936251574  W2        4810            0.0000000000
      9191      3064  TIP3      H1              6.8101013709        5.6325005524        9.8019751574  W2        4810            0.0000000000
      9192      3064  TIP3      H2              5.7372713709        5.5598605524       10.8676251574  W2        4810            0.0000000000
      9193      3065  TIP3      OH2             8.2319413709        6.9376005524        8.8360351574  W2        4815            0.0000000000
      9194      3065  TIP3      H1              8.7232813709        6.3078405524        8.3085851574  W2        4815            0.0000000000
      9195      3065  TIP3      H2              8.8555713709        7.2335405524        9.4991551574  W2        4815            0.0000000000
      9196      3066  TIP3      OH2            15.1363313709       22.1791605524        9.6887551574  W2        4817            0.0000000000
      9197      3066  TIP3      H1             16.0023513709       22.5459005524        9.5105751574  W2        4817            0.0000000000
      9198      3066  TIP3      H2             14.8896113709       21.7399605524        8.8748351574  W2        4817            0.0000000000
      9199      3067  TIP3      OH2             8.0901013709       21.8897505524        8.3163451574  W2        4821            0.0000000000
      9200      3067  TIP3      H1              7.8225613709       22.1760405524        9.1896551574  W2        4821            0.0000000000
      9201      3067  TIP3      H2              8.8613613709       21.3436705524        8.4685951574  W2        4821            0.0000000000
      9202      3068  TIP3      OH2            30.3992713709        8.3497905524        8.0386651574  W2        4853            0.0000000000
      9203      3068  TIP3      H1             29.9683413709        7.9048005524        8.7684051574  W2        4853            0.0000000000
      9204      3068  TIP3      H2             29.6811413709        8.7214205524        7.5264151574  W2        4853            0.0000000000
      9205      3069  TIP3      OH2            24.9158213709        8.8379405524       10.5145751574  W2        4855            0.0000000000
      9206      3069  TIP3      H1             25.3899913709        9.4289305524        9.9296651574  W2        4855            0.0000000000
      9207      3069  TIP3      H2             24.1984613709        9.3682305524       10.8615851574  W2        4855            0.0000000000
      9208      3070  TIP3      OH2            29.0174613709       11.1270805524        9.4211051574  W2        4859            0.0000000000
      9209      3070  TIP3      H1             28.4749713709       10.7474605524        8.7298651574  W2        4859            0.0000000000
      9210      3070  TIP3      H2             29.8509513709       11.3215505524        8.9925151574  W2        4859            0.0000000000
      9211      3071  TIP3      OH2            25.6072813709       13.3678805524        9.1180951574  W2        4869            0.0000000000
      9212      3071  TIP3      H1             26.2232713709       13.9946005524        9.4975751574  W2        4869            0.0000000000
      9213      3071  TIP3      H2             24.7455413709       13.6838605524        9.3897451574  W2        4869            0.0000000000
      9214      3072  TIP3      OH2            31.6321513709       18.4575505524        7.6438551574  W2        4875            0.0000000000
      9215      3072  TIP3      H1             31.8711313709       17.7093605524        7.0967451574  W2        4875            0.0000000000
      9216      3072  TIP3      H2             31.3632813709       18.0697205524        8.4766351574  W2        4875            0.0000000000
      9217      3073  TIP3      OH2            30.5692113709       18.0279305524       10.1001151574  W2        4876            0.0000000000
      9218      3073  TIP3      H1             30.7160113709       17.5079105524       10.8902051574  W2        4876            0.0000000000
      9219      3073  TIP3      H2             30.5663813709       18.9346905524       10.4067051574  W2        4876            0.0000000000
      9220      3074  TIP3      OH2            27.0223213709       15.2802605524       10.6106551574  W2        4877            0.0000000000
      9221      3074  TIP3      H1             26.3362513709       15.6325105524       11.1776251574  W2        4877            0.0000000000
      9222      3074  TIP3      H2             27.5451113709       16.0432205524       10.3640851574  W2        4877            0.0000000000
      9223      3075  TIP3      OH2            30.6452413709       20.7690105524       10.8312251574  W2        4879            0.0000000000
      9224      3075  TIP3      H1             30.8061113709       21.5687605524       10.3304851574  W2        4879            0.0000000000
      9225      3075  TIP3      H2             30.4480213709       21.0756105524       11.7162851574  W2        4879            0.0000000000
      9226      3076  TIP3      OH2            29.3796813709        7.4669305524       10.4469851574  W2        4880            0.0000000000
      9227      3076  TIP3      H1             29.2961613709        8.3552405524       10.7936251574  W2        4880            0.0000000000
      9228      3076  TIP3      H2             30.2697113709        7.2016005524       10.6786651574  W2        4880            0.0000000000
      9229      3077  TIP3      OH2            27.6382113709       17.8941505524        9.5074351574  W2        4881            0.0000000000
      9230      3077  TIP3      H1             28.2303613709       18.5936305524        9.7836751574  W2        4881            0.0000000000
      9231      3077  TIP3      H2             28.0975113709       17.4611005524        8.7878951574  W2        4881            0.0000000000
      9232      3078  TIP3      OH2            25.9541313709       10.5584505524        8.6233751574  W2        4882            0.0000000000
      9233      3078  TIP3      H1             25.9093913709       11.4977605524        8.8020751574  W2        4882            0.0000000000
      9234      3078  TIP3      H2             25.0664513709       10.3229405524        8.3535851574  W2        4882            0.0000000000
      9235      3079  TIP3      OH2            29.2293513709       16.0471705524        7.8737451574  W2        4888            0.0000000000
      9236      3079  TIP3      H1             29.2937613709       15.2531305524        8.4043851574  W2        4888            0.0000000000
      9237      3079  TIP3      H2             29.8822713709       15.9284505524        7.1839451574  W2        4888            0.0000000000
      9238      3080  TIP3      OH2            30.3787313709       14.0197905524       10.1795451574  W2        4891            0.0000000000
      9239      3080  TIP3      H1             29.9189313709       13.5356205524       10.8653951574  W2        4891            0.0000000000
      9240      3080  TIP3      H2             30.6336013709       13.3513305524        9.5435951574  W2        4891            0.0000000000
      9241      3081  TIP3      OH2            31.4497713709       12.2629705524        8.4418651574  W2        4893            0.0000000000
      9242      3081  TIP3      H1             31.2692713709       12.1080905524        7.5146951574  W2        4893            0.0000000000
      9243      3081  TIP3      H2             32.3998213709       12.3708405524        8.4866551574  W2        4893            0.0000000000
      9244      3082  TIP3      OH2            31.3469413709       22.9533405524        9.4432251574  W2        4903            0.0000000000
      9245      3082  TIP3      H1             32.2800113709       23.1112105524        9.5870651574  W2        4903            0.0000000000
      9246      3082  TIP3      H2             31.0828213709       23.6286405524        8.8183751574  W2        4903            0.0000000000
      9247      3083  TIP3      OH2            24.9154313709       17.5897205524        8.9260351574  W2        4904            0.0000000000
      9248      3083  TIP3      H1             25.8293513709       17.6686105524        9.1994251574  W2        4904            0.0000000000
      9249      3083  TIP3      H2             24.9227413709       16.9026805524        8.2595951574  W2        4904            0.0000000000
      9250      3084  TIP3      OH2            25.2270313709        5.0214505524       10.3936251574  W2        4921            0.0000000000
      9251      3084  TIP3      H1             25.6661013709        5.6325005524        9.8019751574  W2        4921            0.0000000000
      9252      3084  TIP3      H2             24.5932713709        5.5598605524       10.8676251574  W2        4921            0.0000000000
      9253      3085  TIP3      OH2            27.0879413709        6.9376005524        8.8360351574  W2        4924            0.0000000000
      9254      3085  TIP3      H1             27.5792813709        6.3078405524        8.3085851574  W2        4924            0.0000000000
      9255      3085  TIP3      H2             27.7115713709        7.2335405524        9.4991551574  W2        4924            0.0000000000
      9256      3086  TIP3      OH2            26.9461013709       21.8897505524        8.3163451574  W2        4928            0.0000000000
      9257      3086  TIP3      H1             26.6785613709       22.1760405524        9.1896551574  W2        4928            0.0000000000
      9258      3086  TIP3      H2             27.7173613709       21.3436705524        8.4685951574  W2        4928            0.0000000000
      9259      3087  TIP3      OH2           -22.3238786291       30.9373005524        9.0392951574  W2        4946            0.0000000000
      9260      3087  TIP3      H1            -21.6228886291       30.9599905524        9.6906951574  W2        4946            0.0000000000
      9261      3087  TIP3      H2            -22.0215886291       30.3092705524        8.3832251574  W2        4946            0.0000000000
      9262      3088  TIP3      OH2           -20.1010786291       31.8514905524       10.6375051574  W2        4951            0.0000000000
      9263      3088  TIP3      H1            -19.5215286291       32.0015205524       11.3843951574  W2        4951            0.0000000000
      9264      3088  TIP3      H2            -19.6870786291       32.3222305524        9.9141451574  W2        4951            0.0000000000
      9265      3089  TIP3      OH2           -16.4022386291       23.6015305524       10.4504751574  W2        4953            0.0000000000
      9266      3089  TIP3      H1            -17.3021686291       23.7404305524       10.7455351574  W2        4953            0.0000000000
      9267      3089  TIP3      H2            -16.1503986291       24.4329905524       10.0486451574  W2        4953            0.0000000000
      9268      3090  TIP3      OH2           -18.6237686291       32.8843205524        8.2672951574  W2        4959            0.0000000000
      9269      3090  TIP3      H1            -18.5816886291       32.6617105524        7.3372951574  W2        4959            0.0000000000
      9270      3090  TIP3      H2            -17.7745586291       33.2830305524        8.4572851574  W2        4959            0.0000000000
      9271      3091  TIP3      OH2           -23.0510186291       26.7601405524        8.9376251574  W2        4960            0.0000000000
      9272      3091  TIP3      H1            -23.3045386291       26.7793005524        9.8604351574  W2        4960            0.0000000000
      9273      3091  TIP3      H2            -23.3078086291       25.8886805524        8.6362451574  W2        4960            0.0000000000
      9274      3092  TIP3      OH2           -26.1687286291       27.2057905524        8.0386651574  W2        4967            0.0000000000
      9275      3092  TIP3      H1            -26.5996586291       26.7608005524        8.7684051574  W2        4967            0.0000000000
      9276      3092  TIP3      H2            -26.8868586291       27.5774205524        7.5264151574  W2        4967            0.0000000000
      9277      3093  TIP3      OH2           -31.6521786291       27.6939405524       10.5145751574  W2        4969            0.0000000000
      9278      3093  TIP3      H1            -31.1780086291       28.2849305524        9.9296651574  W2        4969            0.0000000000
      9279      3093  TIP3      H2            -32.3695386291       28.2242305524       10.8615851574  W2        4969            0.0000000000
      9280      3094  TIP3      OH2           -27.5505386291       29.9830805524        9.4211051574  W2        4975            0.0000000000
      9281      3094  TIP3      H1            -28.0930286291       29.6034605524        8.7298651574  W2        4975            0.0000000000
      9282      3094  TIP3      H2            -26.7170486291       30.1775505524        8.9925151574  W2        4975            0.0000000000
      9283      3095  TIP3      OH2           -20.3175786291       27.3626405524        9.5561751574  W2        4979            0.0000000000
      9284      3095  TIP3      H1            -21.2561586291       27.4742005524        9.4050551574  W2        4979            0.0000000000
      9285      3095  TIP3      H2            -20.0203686291       28.2193305524        9.8627451574  W2        4979            0.0000000000
      9286      3096  TIP3      OH2           -30.9607186291       32.2238805524        9.1180951574  W2        4984            0.0000000000
      9287      3096  TIP3      H1            -30.3447286291       32.8506005524        9.4975751574  W2        4984            0.0000000000
      9288      3096  TIP3      H2            -31.8224586291       32.5398605524        9.3897451574  W2        4984            0.0000000000
      9289      3097  TIP3      OH2           -27.1883186291       26.3229305524       10.4469851574  W2        4991            0.0000000000
      9290      3097  TIP3      H1            -27.2718386291       27.2112405524       10.7936251574  W2        4991            0.0000000000
      9291      3097  TIP3      H2            -26.2982886291       26.0576005524       10.6786651574  W2        4991            0.0000000000
      9292      3098  TIP3      OH2           -30.6138686291       29.4144505524        8.6233751574  W2        4994            0.0000000000
      9293      3098  TIP3      H1            -30.6586086291       30.3537605524        8.8020751574  W2        4994            0.0000000000
      9294      3098  TIP3      H2            -31.5015486291       29.1789405524        8.3535851574  W2        4994            0.0000000000
      9295      3099  TIP3      OH2           -26.1892686291       32.8757905524       10.1795451574  W2        4997            0.0000000000
      9296      3099  TIP3      H1            -26.6490686291       32.3916205524       10.8653951574  W2        4997            0.0000000000
      9297      3099  TIP3      H2            -25.9343986291       32.2073305524        9.5435951574  W2        4997            0.0000000000
      9298      3100  TIP3      OH2           -25.1182286291       31.1189705524        8.4418651574  W2        4999            0.0000000000
      9299      3100  TIP3      H1            -25.2987286291       30.9640905524        7.5146951574  W2        4999            0.0000000000
      9300      3100  TIP3      H2            -24.1681786291       31.2268405524        8.4866551574  W2        4999            0.0000000000
      9301      3101  TIP3      OH2           -14.6072486291       32.2967905524       10.0774151574  W2        5014            0.0000000000
      9302      3101  TIP3      H1            -15.1291386291       32.6532005524        9.3585051574  W2        5014            0.0000000000
      9303      3101  TIP3      H2            -14.6403286291       32.9715705524       10.7555051574  W2        5014            0.0000000000
      9304      3102  TIP3      OH2           -16.2583486291       29.5363505524        8.6281251574  W2        5015            0.0000000000
      9305      3102  TIP3      H1            -16.1619086291       30.2030505524        7.9480951574  W2        5015            0.0000000000
      9306      3102  TIP3      H2            -16.3983886291       28.7209805524        8.1466751574  W2        5015            0.0000000000
      9307      3103  TIP3      OH2           -17.0109686291       26.9443305524        7.7456751574  W2        5019            0.0000000000
      9308      3103  TIP3      H1            -16.4003886291       26.5730105524        8.3824951574  W2        5019            0.0000000000
      9309      3103  TIP3      H2            -17.8478186291       26.5230205524        7.9416751574  W2        5019            0.0000000000
      9310      3104  TIP3      OH2           -14.8982986291       25.8299105524        9.2878951574  W2        5029            0.0000000000
      9311      3104  TIP3      H1            -14.4860386291       25.1084805524        8.8126951574  W2        5029            0.0000000000
      9312      3104  TIP3      H2            -14.2166486291       26.4993705524        9.3463251574  W2        5029            0.0000000000
      9313      3105  TIP3      OH2           -31.3409686291       23.8774505524       10.3936251574  W2        5037            0.0000000000
      9314      3105  TIP3      H1            -30.9018986291       24.4885005524        9.8019751574  W2        5037            0.0000000000
      9315      3105  TIP3      H2            -31.9747286291       24.4158605524       10.8676251574  W2        5037            0.0000000000
      9316      3106  TIP3      OH2           -29.4800586291       25.7936005524        8.8360351574  W2        5041            0.0000000000
      9317      3106  TIP3      H1            -28.9887186291       25.1638405524        8.3085851574  W2        5041            0.0000000000
      9318      3106  TIP3      H2            -28.8564286291       26.0895405524        9.4991551574  W2        5041            0.0000000000
      9319      3107  TIP3      OH2            -3.4678786291       30.9373005524        9.0392951574  W2        5063            0.0000000000
      9320      3107  TIP3      H1             -2.7668886291       30.9599905524        9.6906951574  W2        5063            0.0000000000
      9321      3107  TIP3      H2             -3.1655886291       30.3092705524        8.3832251574  W2        5063            0.0000000000
      9322      3108  TIP3      OH2            -1.2450786291       31.8514905524       10.6375051574  W2        5068            0.0000000000
      9323      3108  TIP3      H1             -0.6655286291       32.0015205524       11.3843951574  W2        5068            0.0000000000
      9324      3108  TIP3      H2             -0.8310786291       32.3222305524        9.9141451574  W2        5068            0.0000000000
      9325      3109  TIP3      OH2             2.4537613709       23.6015305524       10.4504751574  W2        5070            0.0000000000
      9326      3109  TIP3      H1              1.5538313709       23.7404305524       10.7455351574  W2        5070            0.0000000000
      9327      3109  TIP3      H2              2.7056013709       24.4329905524       10.0486451574  W2        5070            0.0000000000
      9328      3110  TIP3      OH2             0.2322313709       32.8843205524        8.2672951574  W2        5076            0.0000000000
      9329      3110  TIP3      H1              0.2743113709       32.6617105524        7.3372951574  W2        5076            0.0000000000
      9330      3110  TIP3      H2              1.0814413709       33.2830305524        8.4572851574  W2        5076            0.0000000000
      9331      3111  TIP3      OH2            -4.1950186291       26.7601405524        8.9376251574  W2        5077            0.0000000000
      9332      3111  TIP3      H1             -4.4485386291       26.7793005524        9.8604351574  W2        5077            0.0000000000
      9333      3111  TIP3      H2             -4.4518086291       25.8886805524        8.6362451574  W2        5077            0.0000000000
      9334      3112  TIP3      OH2            -7.3127286291       27.2057905524        8.0386651574  W2        5084            0.0000000000
      9335      3112  TIP3      H1             -7.7436586291       26.7608005524        8.7684051574  W2        5084            0.0000000000
      9336      3112  TIP3      H2             -8.0308586291       27.5774205524        7.5264151574  W2        5084            0.0000000000
      9337      3113  TIP3      OH2           -12.7961786291       27.6939405524       10.5145751574  W2        5086            0.0000000000
      9338      3113  TIP3      H1            -12.3220086291       28.2849305524        9.9296651574  W2        5086            0.0000000000
      9339      3113  TIP3      H2            -13.5135386291       28.2242305524       10.8615851574  W2        5086            0.0000000000
      9340      3114  TIP3      OH2            -8.6945386291       29.9830805524        9.4211051574  W2        5092            0.0000000000
      9341      3114  TIP3      H1             -9.2370286291       29.6034605524        8.7298651574  W2        5092            0.0000000000
      9342      3114  TIP3      H2             -7.8610486291       30.1775505524        8.9925151574  W2        5092            0.0000000000
      9343      3115  TIP3      OH2            -1.4615786291       27.3626405524        9.5561751574  W2        5096            0.0000000000
      9344      3115  TIP3      H1             -2.4001586291       27.4742005524        9.4050551574  W2        5096            0.0000000000
      9345      3115  TIP3      H2             -1.1643686291       28.2193305524        9.8627451574  W2        5096            0.0000000000
      9346      3116  TIP3      OH2           -12.1047186291       32.2238805524        9.1180951574  W2        5101            0.0000000000
      9347      3116  TIP3      H1            -11.4887286291       32.8506005524        9.4975751574  W2        5101            0.0000000000
      9348      3116  TIP3      H2            -12.9664586291       32.5398605524        9.3897451574  W2        5101            0.0000000000
      9349      3117  TIP3      OH2            -8.3323186291       26.3229305524       10.4469851574  W2        5108            0.0000000000
      9350      3117  TIP3      H1             -8.4158386291       27.2112405524       10.7936251574  W2        5108            0.0000000000
      9351      3117  TIP3      H2             -7.4422886291       26.0576005524       10.6786651574  W2        5108            0.0000000000
      9352      3118  TIP3      OH2           -11.7578686291       29.4144505524        8.6233751574  W2        5111            0.0000000000
      9353      3118  TIP3      H1            -11.8026086291       30.3537605524        8.8020751574  W2        5111            0.0000000000
      9354      3118  TIP3      H2            -12.6455486291       29.1789405524        8.3535851574  W2        5111            0.0000000000
      9355      3119  TIP3      OH2            -7.3332686291       32.8757905524       10.1795451574  W2        5114            0.0000000000
      9356      3119  TIP3      H1             -7.7930686291       32.3916205524       10.8653951574  W2        5114            0.0000000000
      9357      3119  TIP3      H2             -7.0783986291       32.2073305524        9.5435951574  W2        5114            0.0000000000
      9358      3120  TIP3      OH2            -6.2622286291       31.1189705524        8.4418651574  W2        5116            0.0000000000
      9359      3120  TIP3      H1             -6.4427286291       30.9640905524        7.5146951574  W2        5116            0.0000000000
      9360      3120  TIP3      H2             -5.3121786291       31.2268405524        8.4866551574  W2        5116            0.0000000000
      9361      3121  TIP3      OH2             4.2487513709       32.2967905524       10.0774151574  W2        5131            0.0000000000
      9362      3121  TIP3      H1              3.7268613709       32.6532005524        9.3585051574  W2        5131            0.0000000000
      9363      3121  TIP3      H2              4.2156713709       32.9715705524       10.7555051574  W2        5131            0.0000000000
      9364      3122  TIP3      OH2             2.5976513709       29.5363505524        8.6281251574  W2        5132            0.0000000000
      9365      3122  TIP3      H1              2.6940913709       30.2030505524        7.9480951574  W2        5132            0.0000000000
      9366      3122  TIP3      H2              2.4576113709       28.7209805524        8.1466751574  W2        5132            0.0000000000
      9367      3123  TIP3      OH2             1.8450313709       26.9443305524        7.7456751574  W2        5136            0.0000000000
      9368      3123  TIP3      H1              2.4556113709       26.5730105524        8.3824951574  W2        5136            0.0000000000
      9369      3123  TIP3      H2              1.0081813709       26.5230205524        7.9416751574  W2        5136            0.0000000000
      9370      3124  TIP3      OH2             3.9577013709       25.8299105524        9.2878951574  W2        5146            0.0000000000
      9371      3124  TIP3      H1              4.3699613709       25.1084805524        8.8126951574  W2        5146            0.0000000000
      9372      3124  TIP3      H2              4.6393513709       26.4993705524        9.3463251574  W2        5146            0.0000000000
      9373      3125  TIP3      OH2           -12.4849686291       23.8774505524       10.3936251574  W2        5154            0.0000000000
      9374      3125  TIP3      H1            -12.0458986291       24.4885005524        9.8019751574  W2        5154            0.0000000000
      9375      3125  TIP3      H2            -13.1187286291       24.4158605524       10.8676251574  W2        5154            0.0000000000
      9376      3126  TIP3      OH2           -10.6240586291       25.7936005524        8.8360351574  W2        5158            0.0000000000
      9377      3126  TIP3      H1            -10.1327186291       25.1638405524        8.3085851574  W2        5158            0.0000000000
      9378      3126  TIP3      H2            -10.0004286291       26.0895405524        9.4991551574  W2        5158            0.0000000000
      9379      3127  TIP3      OH2            15.3881213709       30.9373005524        9.0392951574  W2        5180            0.0000000000
      9380      3127  TIP3      H1             16.0891113709       30.9599905524        9.6906951574  W2        5180            0.0000000000
      9381      3127  TIP3      H2             15.6904113709       30.3092705524        8.3832251574  W2        5180            0.0000000000
      9382      3128  TIP3      OH2            17.6109213709       31.8514905524       10.6375051574  W2        5185            0.0000000000
      9383      3128  TIP3      H1             18.1904713709       32.0015205524       11.3843951574  W2        5185            0.0000000000
      9384      3128  TIP3      H2             18.0249213709       32.3222305524        9.9141451574  W2        5185            0.0000000000
      9385      3129  TIP3      OH2            21.3097613709       23.6015305524       10.4504751574  W2        5187            0.0000000000
      9386      3129  TIP3      H1             20.4098313709       23.7404305524       10.7455351574  W2        5187            0.0000000000
      9387      3129  TIP3      H2             21.5616013709       24.4329905524       10.0486451574  W2        5187            0.0000000000
      9388      3130  TIP3      OH2            19.0882313709       32.8843205524        8.2672951574  W2        5193            0.0000000000
      9389      3130  TIP3      H1             19.1303113709       32.6617105524        7.3372951574  W2        5193            0.0000000000
      9390      3130  TIP3      H2             19.9374413709       33.2830305524        8.4572851574  W2        5193            0.0000000000
      9391      3131  TIP3      OH2            14.6609813709       26.7601405524        8.9376251574  W2        5194            0.0000000000
      9392      3131  TIP3      H1             14.4074613709       26.7793005524        9.8604351574  W2        5194            0.0000000000
      9393      3131  TIP3      H2             14.4041913709       25.8886805524        8.6362451574  W2        5194            0.0000000000
      9394      3132  TIP3      OH2            11.5432713709       27.2057905524        8.0386651574  W2        5201            0.0000000000
      9395      3132  TIP3      H1             11.1123413709       26.7608005524        8.7684051574  W2        5201            0.0000000000
      9396      3132  TIP3      H2             10.8251413709       27.5774205524        7.5264151574  W2        5201            0.0000000000
      9397      3133  TIP3      OH2             6.0598213709       27.6939405524       10.5145751574  W2        5203            0.0000000000
      9398      3133  TIP3      H1              6.5339913709       28.2849305524        9.9296651574  W2        5203            0.0000000000
      9399      3133  TIP3      H2              5.3424613709       28.2242305524       10.8615851574  W2        5203            0.0000000000
      9400      3134  TIP3      OH2            10.1614613709       29.9830805524        9.4211051574  W2        5209            0.0000000000
      9401      3134  TIP3      H1              9.6189713709       29.6034605524        8.7298651574  W2        5209            0.0000000000
      9402      3134  TIP3      H2             10.9949513709       30.1775505524        8.9925151574  W2        5209            0.0000000000
      9403      3135  TIP3      OH2            17.3944213709       27.3626405524        9.5561751574  W2        5213            0.0000000000
      9404      3135  TIP3      H1             16.4558413709       27.4742005524        9.4050551574  W2        5213            0.0000000000
      9405      3135  TIP3      H2             17.6916313709       28.2193305524        9.8627451574  W2        5213            0.0000000000
      9406      3136  TIP3      OH2             6.7512813709       32.2238805524        9.1180951574  W2        5218            0.0000000000
      9407      3136  TIP3      H1              7.3672713709       32.8506005524        9.4975751574  W2        5218            0.0000000000
      9408      3136  TIP3      H2              5.8895413709       32.5398605524        9.3897451574  W2        5218            0.0000000000
      9409      3137  TIP3      OH2            10.5236813709       26.3229305524       10.4469851574  W2        5225            0.0000000000
      9410      3137  TIP3      H1             10.4401613709       27.2112405524       10.7936251574  W2        5225            0.0000000000
      9411      3137  TIP3      H2             11.4137113709       26.0576005524       10.6786651574  W2        5225            0.0000000000
      9412      3138  TIP3      OH2             7.0981313709       29.4144505524        8.6233751574  W2        5228            0.0000000000
      9413      3138  TIP3      H1              7.0533913709       30.3537605524        8.8020751574  W2        5228            0.0000000000
      9414      3138  TIP3      H2              6.2104513709       29.1789405524        8.3535851574  W2        5228            0.0000000000
      9415      3139  TIP3      OH2            11.5227313709       32.8757905524       10.1795451574  W2        5231            0.0000000000
      9416      3139  TIP3      H1             11.0629313709       32.3916205524       10.8653951574  W2        5231            0.0000000000
      9417      3139  TIP3      H2             11.7776013709       32.2073305524        9.5435951574  W2        5231            0.0000000000
      9418      3140  TIP3      OH2            12.5937713709       31.1189705524        8.4418651574  W2        5233            0.0000000000
      9419      3140  TIP3      H1             12.4132713709       30.9640905524        7.5146951574  W2        5233            0.0000000000
      9420      3140  TIP3      H2             13.5438213709       31.2268405524        8.4866551574  W2        5233            0.0000000000
      9421      3141  TIP3      OH2            23.1047513709       32.2967905524       10.0774151574  W2        5248            0.0000000000
      9422      3141  TIP3      H1             22.5828613709       32.6532005524        9.3585051574  W2        5248            0.0000000000
      9423      3141  TIP3      H2             23.0716713709       32.9715705524       10.7555051574  W2        5248            0.0000000000
      9424      3142  TIP3      OH2            21.4536513709       29.5363505524        8.6281251574  W2        5249            0.0000000000
      9425      3142  TIP3      H1             21.5500913709       30.2030505524        7.9480951574  W2        5249            0.0000000000
      9426      3142  TIP3      H2             21.3136113709       28.7209805524        8.1466751574  W2        5249            0.0000000000
      9427      3143  TIP3      OH2            20.7010313709       26.9443305524        7.7456751574  W2        5253            0.0000000000
      9428      3143  TIP3      H1             21.3116113709       26.5730105524        8.3824951574  W2        5253            0.0000000000
      9429      3143  TIP3      H2             19.8641813709       26.5230205524        7.9416751574  W2        5253            0.0000000000
      9430      3144  TIP3      OH2            22.8137013709       25.8299105524        9.2878951574  W2        5263            0.0000000000
      9431      3144  TIP3      H1             23.2259613709       25.1084805524        8.8126951574  W2        5263            0.0000000000
      9432      3144  TIP3      H2             23.4953513709       26.4993705524        9.3463251574  W2        5263            0.0000000000
      9433      3145  TIP3      OH2             6.3710313709       23.8774505524       10.3936251574  W2        5271            0.0000000000
      9434      3145  TIP3      H1              6.8101013709       24.4885005524        9.8019751574  W2        5271            0.0000000000
      9435      3145  TIP3      H2              5.7372713709       24.4158605524       10.8676251574  W2        5271            0.0000000000
      9436      3146  TIP3      OH2             8.2319413709       25.7936005524        8.8360351574  W2        5275            0.0000000000
      9437      3146  TIP3      H1              8.7232813709       25.1638405524        8.3085851574  W2        5275            0.0000000000
      9438      3146  TIP3      H2              8.8555713709       26.0895405524        9.4991551574  W2        5275            0.0000000000
      9439      3147  TIP3      OH2            30.3992713709       27.2057905524        8.0386651574  W2        5296            0.0000000000
      9440      3147  TIP3      H1             29.9683413709       26.7608005524        8.7684051574  W2        5296            0.0000000000
      9441      3147  TIP3      H2             29.6811413709       27.5774205524        7.5264151574  W2        5296            0.0000000000
      9442      3148  TIP3      OH2            24.9158213709       27.6939405524       10.5145751574  W2        5298            0.0000000000
      9443      3148  TIP3      H1             25.3899913709       28.2849305524        9.9296651574  W2        5298            0.0000000000
      9444      3148  TIP3      H2             24.1984613709       28.2242305524       10.8615851574  W2        5298            0.0000000000
      9445      3149  TIP3      OH2            29.0174613709       29.9830805524        9.4211051574  W2        5302            0.0000000000
      9446      3149  TIP3      H1             28.4749713709       29.6034605524        8.7298651574  W2        5302            0.0000000000
      9447      3149  TIP3      H2             29.8509513709       30.1775505524        8.9925151574  W2        5302            0.0000000000
      9448      3150  TIP3      OH2            25.6072813709       32.2238805524        9.1180951574  W2        5308            0.0000000000
      9449      3150  TIP3      H1             26.2232713709       32.8506005524        9.4975751574  W2        5308            0.0000000000
      9450      3150  TIP3      H2             24.7455413709       32.5398605524        9.3897451574  W2        5308            0.0000000000
      9451      3151  TIP3      OH2            29.3796813709       26.3229305524       10.4469851574  W2        5311            0.0000000000
      9452      3151  TIP3      H1             29.2961613709       27.2112405524       10.7936251574  W2        5311            0.0000000000
      9453      3151  TIP3      H2             30.2697113709       26.0576005524       10.6786651574  W2        5311            0.0000000000
      9454      3152  TIP3      OH2            25.9541313709       29.4144505524        8.6233751574  W2        5312            0.0000000000
      9455      3152  TIP3      H1             25.9093913709       30.3537605524        8.8020751574  W2        5312            0.0000000000
      9456      3152  TIP3      H2             25.0664513709       29.1789405524        8.3535851574  W2        5312            0.0000000000
      9457      3153  TIP3      OH2            30.3787313709       32.8757905524       10.1795451574  W2        5315            0.0000000000
      9458      3153  TIP3      H1             29.9189313709       32.3916205524       10.8653951574  W2        5315            0.0000000000
      9459      3153  TIP3      H2             30.6336013709       32.2073305524        9.5435951574  W2        5315            0.0000000000
      9460      3154  TIP3      OH2            31.4497713709       31.1189705524        8.4418651574  W2        5317            0.0000000000
      9461      3154  TIP3      H1             31.2692713709       30.9640905524        7.5146951574  W2        5317            0.0000000000
      9462      3154  TIP3      H2             32.3998213709       31.2268405524        8.4866551574  W2        5317            0.0000000000
      9463      3155  TIP3      OH2            25.2270313709       23.8774505524       10.3936251574  W2        5333            0.0000000000
      9464      3155  TIP3      H1             25.6661013709       24.4885005524        9.8019751574  W2        5333            0.0000000000
      9465      3155  TIP3      H2             24.5932713709       24.4158605524       10.8676251574  W2        5333            0.0000000000
      9466      3156  TIP3      OH2            27.0879413709       25.7936005524        8.8360351574  W2        5335            0.0000000000
      9467      3156  TIP3      H1             27.5792813709       25.1638405524        8.3085851574  W2        5335            0.0000000000
      9468      3156  TIP3      H2             27.7115713709       26.0895405524        9.4991551574  W2        5335            0.0000000000
