* GENERATED BY CHARMM-GUI (HTTP://WWW.CHARMM-GUI.ORG) V3.7 ON AUG, 30. 2026. JOB
* GENERATES ION CONFORMATION USING MONTE-CARLO SIMULATION
*  DATE:     8/30/26     14:17:45      CREATED BY USER: charmm-gui
*
     17350  EXT
         1         1  ASN       N              -0.2207585364        0.8471050673      -10.9496900286  PROA      1               0.0000000000
         2         1  ASN       HT1            -0.8738400281        1.5674394778      -11.3187468024  PROA      1               0.0000000000
         3         1  ASN       HT2            -0.5003976020       -0.0892537480      -11.3055464578  PROA      1               0.0000000000
         4         1  ASN       HT3             0.7467310460        1.0623721961      -11.2646878182  PROA      1               0.0000000000
         5         1  ASN       CA             -0.2688175800        0.8474491781       -9.4924823530  PROA      1               0.0000000000
         6         1  ASN       HA             -1.2930698884        0.9772511193       -9.1766354892  PROA      1               0.0000000000
         7         1  ASN       CB              0.2892674808       -0.5056404576       -9.0405216215  PROA      1               0.0000000000
         8         1  ASN       HB1             0.2988269392       -0.4935362130       -7.9318452099  PROA      1               0.0000000000
         9         1  ASN       HB2             1.3300371863       -0.5647156547       -9.4182911585  PROA      1               0.0000000000
        10         1  ASN       CG             -0.3930028358       -1.8195530537       -9.4509237471  PROA      1               0.0000000000
        11         1  ASN       OD1             0.1559571628       -2.8546904216       -9.1184037483  PROA      1               0.0000000000
        12         1  ASN       ND2            -1.5423473095       -1.8433628214      -10.1451804545  PROA      1               0.0000000000
        13         1  ASN       HD21           -1.8800606987       -2.7051317660      -10.5237355400  PROA      1               0.0000000000
        14         1  ASN       HD22           -2.0604607115       -0.9993231454      -10.2835839519  PROA      1               0.0000000000
        15         1  ASN       C               0.6558490497        1.9089568097       -8.9109377099  PROA      1               0.0000000000
        16         1  ASN       OT1             1.3163540751        2.6217719006       -9.7129525212  PROA      1               0.0000000000
        17         1  ASN       OT2             0.7135531686        2.0206383141       -7.6572242353  PROA      1               0.0000000000
        18         2  ASN       N              -0.3460153030        0.8480019267       -7.1517550716  PROB      2               0.0000000000
        19         2  ASN       HT1            -0.7145432567        1.7515460488       -7.5114704682  PROB      2               0.0000000000
        20         2  ASN       HT2            -0.9266083271        0.0665365247       -7.5175736085  PROB      2               0.0000000000
        21         2  ASN       HT3             0.6376725847        0.7250357986       -7.4661387656  PROB      2               0.0000000000
        22         2  ASN       CA             -0.3940743467        0.8483460374       -5.6945473959  PROB      2               0.0000000000
        23         2  ASN       HA             -1.4303995978        0.7979258504       -5.3951850659  PROB      2               0.0000000000
        24         2  ASN       CB              0.3857181602       -0.3526526514       -5.1452616819  PROB      2               0.0000000000
        25         2  ASN       HB1             0.4377631853       -0.2513083922       -4.0410329327  PROB      2               0.0000000000
        26         2  ASN       HB2             1.4125741804       -0.3155429761       -5.5653688823  PROB      2               0.0000000000
        27         2  ASN       CG             -0.1904340276       -1.7436850655       -5.4550930542  PROB      2               0.0000000000
        28         2  ASN       OD1             0.4449564459       -2.7348069693       -5.1357416522  PROB      2               0.0000000000
        29         2  ASN       ND2            -1.3774204036       -1.8474503643       -6.0685277335  PROB      2               0.0000000000
        30         2  ASN       HD21           -1.6895111927       -2.7352414422       -6.4067973615  PROB      2               0.0000000000
        31         2  ASN       HD22           -1.9510402153       -1.0370873233       -6.1879934337  PROB      2               0.0000000000
        32         2  ASN       C               0.5305922830        1.9098536691       -5.1130027528  PROB      2               0.0000000000
        33         2  ASN       OT1             1.1910973085        2.6226687599       -5.9150175642  PROB      2               0.0000000000
        34         2  ASN       OT2             0.5882964019        2.0215351734       -3.8592892783  PROB      2               0.0000000000
        35         3  ARG       N              -0.4712720697        0.8488987860       -3.3538201145  PROC      3               0.0000000000
        36         3  ARG       HT1            -0.8556593348        1.7456015575       -3.7140569394  PROC      3               0.0000000000
        37         3  ARG       HT2            -1.0380083486        0.0571145015       -3.7191792160  PROC      3               0.0000000000
        38         3  ARG       HT3             0.5144296489        0.7430977505       -3.6681414453  PROC      3               0.0000000000
        39         3  ARG       CA             -0.5193311133        0.8492428968       -1.8966124389  PROC      3               0.0000000000
        40         3  ARG       HA             -1.5099831608        0.6084678089       -1.5462351080  PROC      3               0.0000000000
        41         3  ARG       CB              0.5203461471       -0.2867846577       -1.6289286896  PROC      3               0.0000000000
        42         3  ARG       HB1             1.3337680005       -0.1633663005       -2.3725386345  PROC      3               0.0000000000
        43         3  ARG       HB2             0.0025082201       -1.2499488868       -1.8133236514  PROC      3               0.0000000000
        44         3  ARG       CG              1.1909212525       -0.3930496215       -0.2390445989  PROC      3               0.0000000000
        45         3  ARG       HG1             0.3690217540       -0.5303584761        0.4910733417  PROC      3               0.0000000000
        46         3  ARG       HG2             1.6823731637        0.5831372785       -0.0574437461  PROC      3               0.0000000000
        47         3  ARG       CD              2.2534195986       -1.4829705780        0.0924151621  PROC      3               0.0000000000
        48         3  ARG       HD1             2.9906783646       -1.5666644750       -0.7343032571  PROC      3               0.0000000000
        49         3  ARG       HD2             1.7595822004       -2.4630375037        0.2644963821  PROC      3               0.0000000000
        50         3  ARG       NE              2.9731495108       -1.1050336900        1.3187163332  PROC      3               0.0000000000
        51         3  ARG       HE              3.7578261153       -0.5178909929        1.1542282112  PROC      3               0.0000000000
        52         3  ARG       CZ              2.7808153202       -1.3961404862        2.6211530465  PROC      3               0.0000000000
        53         3  ARG       NH1             1.7488170283       -2.1921067154        2.9505028418  PROC      3               0.0000000000
        54         3  ARG       HH11            1.1473578131       -2.5518690970        2.2371881558  PROC      3               0.0000000000
        55         3  ARG       HH12            1.5825729337       -2.4244634426        3.9088207704  PROC      3               0.0000000000
        56         3  ARG       NH2             3.5832110670       -0.9140401226        3.5830107829  PROC      3               0.0000000000
        57         3  ARG       HH21            4.2547751339       -0.2057474446        3.3654718522  PROC      3               0.0000000000
        58         3  ARG       HH22            3.5094800530       -1.2631390572        4.5171915317  PROC      3               0.0000000000
        59         3  ARG       C               0.4053355164        1.9107505284       -1.3150677958  PROC      3               0.0000000000
        60         3  ARG       OT1             1.0658405418        2.6235656193       -2.1170826071  PROC      3               0.0000000000
        61         3  ARG       OT2             0.4630396353        2.0224320328       -0.0613543212  PROC      3               0.0000000000
        62         4  PRO       N              -0.5965288363        0.8497956454        0.4441148425  PROD      4               0.0000000000
        63         4  PRO       HN1            -0.9592266337        1.6797924890        0.0202486153  PROD      4               0.0000000000
        64         4  PRO       HN2             0.3002293585        0.6263087084        0.0620345368  PROD      4               0.0000000000
        65         4  PRO       CD             -1.5303106641       -0.2654641124        0.4716134016  PROD      4               0.0000000000
        66         4  PRO       HD1            -1.9448242431       -0.4899446469       -0.5320291396  PROD      4               0.0000000000
        67         4  PRO       HD2            -2.3597441939       -0.1001141767        1.1886983243  PROD      4               0.0000000000
        68         4  PRO       CA             -0.6445878800        0.8501397561        1.9013225182  PROD      4               0.0000000000
        69         4  PRO       HA             -1.6630304828        0.8441485221        2.2537816097  PROD      4               0.0000000000
        70         4  PRO       CB              0.1575995028       -0.4517783276        2.0161341303  PROD      4               0.0000000000
        71         4  PRO       HB1             0.0710673976       -0.8975501898        3.0294850968  PROD      4               0.0000000000
        72         4  PRO       HB2             1.2316327378       -0.2923361394        1.7835156906  PROD      4               0.0000000000
        73         4  PRO       CG             -0.5284344213       -1.3246256934        0.9531492147  PROD      4               0.0000000000
        74         4  PRO       HG1             0.1674125067       -1.6502780471        0.1529690076  PROD      4               0.0000000000
        75         4  PRO       HG2            -1.0246631971       -2.2166635045        1.3873914422  PROD      4               0.0000000000
        76         4  PRO       C               0.2800787497        1.9116473878        2.4828671613  PROD      4               0.0000000000
        77         4  PRO       OT1             0.9405837751        2.6244624786        1.6808523499  PROD      4               0.0000000000
        78         4  PRO       OT2             0.3377828686        2.0233288921        3.7365806359  PROD      4               0.0000000000
        79         5  ASN       N              -0.7217856030        0.8506925047        4.2420497996  PROE      5               0.0000000000
        80         5  ASN       HT1            -1.0966916358        1.7515251107        3.8821246927  PROE      5               0.0000000000
        81         5  ASN       HT2            -1.2968403994        0.0650572605        3.8764148994  PROE      5               0.0000000000
        82         5  ASN       HT3             0.2627466665        0.7346096610        3.9276923281  PROE      5               0.0000000000
        83         5  ASN       CA             -0.7698446466        0.8510366155        5.6992574752  PROE      5               0.0000000000
        84         5  ASN       HA             -1.7997035726        0.7937449320        6.0180646197  PROE      5               0.0000000000
        85         5  ASN       CB              0.0281676111       -0.3831215939        6.1420937324  PROE      5               0.0000000000
        86         5  ASN       HB1             0.1149099410       -0.3513387476        7.2481436090  PROE      5               0.0000000000
        87         5  ASN       HB2             1.0403992349       -0.3110811586        5.6925628369  PROE      5               0.0000000000
        88         5  ASN       CG             -0.5415265737       -1.7632901334        5.7674374388  PROE      5               0.0000000000
        89         5  ASN       OD1             0.0734307248       -2.7697759586        6.0891202093  PROE      5               0.0000000000
        90         5  ASN       ND2            -1.7019356661       -1.8606750482        5.0888418916  PROE      5               0.0000000000
        91         5  ASN       HD21           -1.9919951318       -2.7430852719        4.7184128116  PROE      5               0.0000000000
        92         5  ASN       HD22           -2.2728509868       -1.0505203391        4.9557815900  PROE      5               0.0000000000
        93         5  ASN       C               0.1548219831        1.9125442471        6.2808021184  PROE      5               0.0000000000
        94         5  ASN       OT1             0.8153270085        2.6253593380        5.4787873070  PROE      5               0.0000000000
        95         5  ASN       OT2             0.2125261020        2.0242257515        7.5345155929  PROE      5               0.0000000000
        96         6  PRO       N              -0.8470423696        0.8515893641        8.0399847567  PROF      6               0.0000000000
        97         6  PRO       HN1            -1.2077016732        1.6860700554        7.6210770282  PROF      6               0.0000000000
        98         6  PRO       HN2             0.0548610773        0.6363156683        7.6629645306  PROF      6               0.0000000000
        99         6  PRO       CD             -1.7704100293       -0.2596110139        8.0238018947  PROF      6               0.0021981495
       100         6  PRO       HD1            -2.1699592230       -0.4712225456        7.0124916349  PROF      6               0.0000000000
       101         6  PRO       HD2            -2.6071847360       -0.1330420409        8.7386136361  PROF      6               0.0038000958
       102         6  PRO       CA             -0.8951014133        0.8519334748        9.4971924323  PROF      6               0.0349087116
       103         6  PRO       HA             -1.8977948481        0.7424754303        9.8725003474  PROF      6               0.0461612036
       104         6  PRO       CB              0.0202794790       -0.3741889708        9.4826469779  PROF      6               0.0349728055
       105         6  PRO       HB1             0.0955379701       -0.8415825332       10.4870716969  PROF      6               0.0576392161
       106         6  PRO       HB2             1.0407805787       -0.1197566116        9.1265131843  PROF      6               0.0211529811
       107         6  PRO       CG             -0.7150541667       -1.2802401030        8.4910836791  PROF      6               0.0149301278
       108         6  PRO       HG1            -0.0602020869       -1.6221425002        7.6631593987  PROF      6               0.0000000000
       109         6  PRO       HG2            -1.1695645429       -2.1653423983        8.9822062245  PROF      6               0.0151472352
       110         6  PRO       C               0.0295652164        1.9134411065       10.0787370754  PROF      6               0.0443360285
       111         6  PRO       OT1             0.6900702418        2.6262561973        9.2767222641  PROF      6               0.0305136881
       112         6  PRO       OT2             0.0872693353        2.0251226108       11.3324505500  PROF      6               0.0540932943
       113         7  POPC      N               3.7622812421        8.7747469589       20.4814059832  MEMB      1               0.0000000000
       114         7  POPC      C12             3.0275447586        7.6694870936       19.7001704286  MEMB      1               0.0000000000
       115         7  POPC      H12A            2.0811296003        8.1186047753       19.4375079393  MEMB      1               0.0000000000
       116         7  POPC      H12B            2.9286944274        6.7650445921       20.2820745434  MEMB      1               0.0000000000
       117         7  POPC      C13             4.1423246193        9.8975585209       19.5576320336  MEMB      1               0.0000000000
       118         7  POPC      H13A            4.5907295526       10.8081893483       19.9265283420  MEMB      1               0.0000000000
       119         7  POPC      H13B            4.6707491181        9.4999990195       18.7037503649  MEMB      1               0.0000000000
       120         7  POPC      H13C            3.2022791062       10.1510562598       19.0902421932  MEMB      1               0.0000000000
       121         7  POPC      C14             2.7757797369        9.3621305894       21.6410854941  MEMB      1               0.0000000000
       122         7  POPC      H14A            2.3801572140        8.4953338864       22.1495601057  MEMB      1               0.0000000000
       123         7  POPC      H14B            3.2477227911       10.0580616478       22.3188389878  MEMB      1               0.0000000000
       124         7  POPC      H14C            1.9109300971        9.7544593665       21.1267771640  MEMB      1               0.0000000000
       125         7  POPC      C15             5.0190099643        8.1198567962       21.1139066027  MEMB      1               0.0000000000
       126         7  POPC      H15A            5.6781158098        7.9333406563       20.2789267577  MEMB      1               0.0000000000
       127         7  POPC      H15B            4.8534581333        7.1810176781       21.6214236190  MEMB      1               0.0000000000
       128         7  POPC      H15C            5.5502688976        8.7155882180       21.8414147187  MEMB      1               0.0000000000
       129         7  POPC      C11             3.5562044085        7.2091514802       18.3611776341  MEMB      1               0.0000000000
       130         7  POPC      H11A            3.5903507527        8.0473292820       17.6327456863  MEMB      1               0.0000000000
       131         7  POPC      H11B            2.8159973626        6.4486255300       18.0325215309  MEMB      1               0.0000000000
       132         7  POPC      P               5.4995757490        5.6444745819       17.5791345799  MEMB      1               0.0000000000
       133         7  POPC      O13             4.6358835976        5.4333236701       16.4047690782  MEMB      1               0.0000000000
       134         7  POPC      O14             5.9717251174        4.4521333269       18.3117278847  MEMB      1               0.0000000000
       135         7  POPC      O12             4.8199344499        6.6275164613       18.6420831917  MEMB      1               0.0000000000
       136         7  POPC      O11             6.7224079312        6.4934872015       17.2069070714  MEMB      1               0.0000000000
       137         7  POPC      C1              7.6375644160        6.9645640226       18.1806973861  MEMB      1               0.0000000000
       138         7  POPC      HA              7.9897605719        6.1373841332       18.8334242332  MEMB      1               0.0000000000
       139         7  POPC      HB              7.1185710702        7.6816044697       18.8521286401  MEMB      1               0.0000000000
       140         7  POPC      C2              8.8031263686        7.7826100041       17.6844930441  MEMB      1               0.0000000000
       141         7  POPC      HS              9.3288805698        8.3276723218       18.4973953559  MEMB      1               0.0000000000
       142         7  POPC      O21             8.3144582994        8.7035274094       16.7147124613  MEMB      1               0.0000000000
       143         7  POPC      C21             7.3801933849        9.6513586367       17.1445185455  MEMB      1               0.0000000000
       144         7  POPC      O22             7.2510967171        9.8771906315       18.2761810441  MEMB      1               0.0000000000
       145         7  POPC      C22             6.7743151504       10.3478208547       15.9238137300  MEMB      1               0.0000000000
       146         7  POPC      H2R             7.1409571629       10.0162808860       14.9288383159  MEMB      1               0.0000000000
       147         7  POPC      H2S             6.9349278677       11.4470059131       15.9415977060  MEMB      1               0.0000000000
       148         7  POPC      C3              9.8694162267        6.8867148539       17.0766903508  MEMB      1               0.0000000000
       149         7  POPC      HX             10.2617730991        6.2435927505       17.8932507964  MEMB      1               0.0000000000
       150         7  POPC      HY             10.7396693005        7.5330917466       16.8334262870  MEMB      1               0.0000000000
       151         7  POPC      O31             9.4110264931        6.2125762978       15.9137898319  MEMB      1               0.0000000000
       152         7  POPC      C31             9.5676385583        6.7922186827       14.7484076985  MEMB      1               0.0000000000
       153         7  POPC      O32            10.0083260996        7.9422935631       14.6324275346  MEMB      1               0.0000000000
       154         7  POPC      C32             9.0492371421        6.0426867312       13.5069486156  MEMB      1               0.0000000000
       155         7  POPC      H2X             9.4277648767        4.9983707169       13.4859339966  MEMB      1               0.0000000000
       156         7  POPC      H2Y             9.2325605830        6.5444469197       12.5328081152  MEMB      1               0.0000000000
       157         7  POPC      C23             5.2045013925       10.1029027740       15.9678959217  MEMB      1               0.0000000000
       158         7  POPC      H3R             4.7949857396       10.4690522438       16.9335833443  MEMB      1               0.0000000000
       159         7  POPC      H3S             4.8512609578        9.0635235162       15.7969200227  MEMB      1               0.0000000000
       160         7  POPC      C24             4.4267360857       11.0024523375       14.9949560455  MEMB      1               0.0000000000
       161         7  POPC      H4R             4.8266451388       10.8358287777       13.9719067990  MEMB      1               0.0000000000
       162         7  POPC      H4S             4.5187297869       12.0865512306       15.2198720155  MEMB      1               0.0000000000
       163         7  POPC      C25             2.9451013849       10.7056473219       14.9312336706  MEMB      1               0.0000000000
       164         7  POPC      H5R             2.3829377024       11.4391521470       14.3145784459  MEMB      1               0.0000000000
       165         7  POPC      H5S             2.4871404392       10.8419193217       15.9342405978  MEMB      1               0.0000000000
       166         7  POPC      C26             2.4610691131        9.4055783796       14.3038963138  MEMB      1               0.0000000000
       167         7  POPC      H6R             1.3662200598        9.4621712531       14.1238300276  MEMB      1               0.0000000000
       168         7  POPC      H6S             2.6799525506        8.5638635401       14.9952192521  MEMB      1               0.0000000000
       169         7  POPC      C27             3.1129007338        9.1626118871       12.8644641254  MEMB      1               0.0000000000
       170         7  POPC      H7R             4.1820481303        9.1549891068       13.1664357747  MEMB      1               0.0000000000
       171         7  POPC      H7S             2.8048301031       10.0801666966       12.3190223681  MEMB      1               0.0000000000
       172         7  POPC      C28             2.6832374429        7.8930900290       12.1261217388  MEMB      1               0.0000000000
       173         7  POPC      H8R             1.5914126483        7.7345834518       12.2569471461  MEMB      1               0.0000000000
       174         7  POPC      H8S             3.2475421992        7.0590905279       12.5955108712  MEMB      1               0.0000000000
       175         7  POPC      C29             2.9281156426        7.7475235150       10.6482853066  MEMB      1               0.0000000000
       176         7  POPC      H91             2.2225885590        6.9352998409       10.4191033099  MEMB      1               0.0000000000
       177         7  POPC      C210            3.8262388739        8.2094963785        9.7084911529  MEMB      1               0.0000000000
       178         7  POPC      H101            3.6633888609        8.0403478658        8.6338424947  MEMB      1               0.0000000000
       179         7  POPC      C211            4.9860455133        9.1361425008        9.9406435872  MEMB      1               0.0000000000
       180         7  POPC      H11R            5.3999141735        8.8569575356       10.9331603933  MEMB      1               0.0000000000
       181         7  POPC      H11S            4.7770647003       10.2272818509        9.9327150962  MEMB      1               0.0000000000
       182         7  POPC      C212            6.0899277323        8.7758486844        8.9089682974  MEMB      1               0.0000000000
       183         7  POPC      H12R            6.3754419794        7.7123319844        9.0563950156  MEMB      1               0.0000000000
       184         7  POPC      H12S            7.0361207255        9.3143461465        9.1304634624  MEMB      1               0.0000000000
       185         7  POPC      C213            5.7882702780        9.0352792394        7.4014663942  MEMB      1               0.0000000000
       186         7  POPC      H13R            5.0433646389        8.2937896738        7.0414250795  MEMB      1               0.0000000000
       187         7  POPC      H13S            6.6800290482        8.6855209057        6.8386554712  MEMB      1               0.0000000000
       188         7  POPC      C214            5.5873376752       10.4914012292        6.9661750902  MEMB      1               0.0000000000
       189         7  POPC      H14R            6.3243531857       11.2107459529        7.3829149021  MEMB      1               0.0000000000
       190         7  POPC      H14S            4.5995396339       10.8422818479        7.3342218965  MEMB      1               0.0000000000
       191         7  POPC      C215            5.6022993549       10.7220225453        5.4518132991  MEMB      1               0.0000000000
       192         7  POPC      H15R            5.3633226222       11.7891867397        5.2559256220  MEMB      1               0.0000000000
       193         7  POPC      H15S            4.8799139197       10.1050163971        4.8758063493  MEMB      1               0.0000000000
       194         7  POPC      C216            7.1055371083       10.5197954796        5.0138913426  MEMB      1               0.0000000000
       195         7  POPC      H16R            7.3706906715        9.4536339344        4.8486220016  MEMB      1               0.0000000000
       196         7  POPC      H16S            7.6862447862       10.9210329978        5.8718587606  MEMB      1               0.0000000000
       197         7  POPC      C217            7.5857744848       11.1238908237        3.7442431407  MEMB      1               0.0000000000
       198         7  POPC      H17R            8.3209654659       10.4240675882        3.2925103831  MEMB      1               0.0000000000
       199         7  POPC      H17S            7.9404747577       12.1577058584        3.9435805530  MEMB      1               0.0000000000
       200         7  POPC      C218            6.4731247750       11.3716886149        2.7065065176  MEMB      1               0.0000000000
       201         7  POPC      H18R            6.9826181561       11.8314007190        1.8327782123  MEMB      1               0.0000000000
       202         7  POPC      H18S            5.7656694860       12.1261527616        3.1122307507  MEMB      1               0.0000000000
       203         7  POPC      H18T            6.0422057210       10.4094998210        2.3560461921  MEMB      1               0.0000000000
       204         7  POPC      C33             7.4945935845        5.9156082323       13.6943497387  MEMB      1               0.0000000000
       205         7  POPC      H3X             7.0211735862        6.8842866122       13.4262893032  MEMB      1               0.0000000000
       206         7  POPC      H3Y             7.2261827078        5.6857418677       14.7476485193  MEMB      1               0.0000000000
       207         7  POPC      C34             6.9067912635        4.6407100168       12.9398573184  MEMB      1               0.0000000000
       208         7  POPC      H4X             5.8370545715        4.5127528212       13.2111720240  MEMB      1               0.0000000000
       209         7  POPC      H4Y             7.4179465011        3.7969272051       13.4508093125  MEMB      1               0.0000000000
       210         7  POPC      C35             7.1206468882        4.8111685041       11.4331944595  MEMB      1               0.0000000000
       211         7  POPC      H5X             8.2068102187        4.8470948086       11.2023706486  MEMB      1               0.0000000000
       212         7  POPC      H5Y             6.7063970743        5.8016325018       11.1473640411  MEMB      1               0.0000000000
       213         7  POPC      C36             6.5672444374        3.6775089063       10.5092634516  MEMB      1               0.0000000000
       214         7  POPC      H6X             5.4597950455        3.6246170866       10.5805332674  MEMB      1               0.0000000000
       215         7  POPC      H6Y             6.8793118401        2.7537856087       11.0418698236  MEMB      1               0.0000000000
       216         7  POPC      C37             6.8898202138        3.6364297896        9.0639920316  MEMB      1               0.0000000000
       217         7  POPC      H7X             6.6900971329        2.6505887081        8.5922408298  MEMB      1               0.0000000000
       218         7  POPC      H7Y             7.9601573184        3.8600674952        8.8673053938  MEMB      1               0.0000000000
       219         7  POPC      C38             6.1613384569        4.6803927778        8.2209177121  MEMB      1               0.0000000000
       220         7  POPC      H8X             6.4562895747        5.7057388121        8.5307409106  MEMB      1               0.0000000000
       221         7  POPC      H8Y             5.1263133375        4.6593939411        8.6241586373  MEMB      1               0.0000000000
       222         7  POPC      C39             6.3121867733        4.4006716399        6.7319900790  MEMB      1               0.0000000000
       223         7  POPC      H9X             6.0488167747        3.3234887009        6.6639181533  MEMB      1               0.0000000000
       224         7  POPC      H9Y             7.3646480492        4.6776799457        6.5085782919  MEMB      1               0.0000000000
       225         7  POPC      C310            5.3698750709        5.3202526304        5.9487864498  MEMB      1               0.0000000000
       226         7  POPC      H10X            5.6105251302        6.3539387354        6.2772700659  MEMB      1               0.0000000000
       227         7  POPC      H10Y            4.2863624142        5.2928489489        6.1928568767  MEMB      1               0.0000000000
       228         7  POPC      C311            5.5979724377        5.0763132125        4.4016448390  MEMB      1               0.0000000000
       229         7  POPC      H11X            5.5158877196        3.9782757466        4.2536708612  MEMB      1               0.0000000000
       230         7  POPC      H11Y            6.6407112253        5.4359300294        4.2686321544  MEMB      1               0.0000000000
       231         7  POPC      C312            4.5401779621        5.7223642737        3.5585728456  MEMB      1               0.0000000000
       232         7  POPC      H12X            4.5992169677        6.8167340654        3.7407543267  MEMB      1               0.0000000000
       233         7  POPC      H12Y            3.5711349127        5.3909423853        3.9891954869  MEMB      1               0.0000000000
       234         7  POPC      C313            4.7241403122        5.4019819612        2.0670942917  MEMB      1               0.0000000000
       235         7  POPC      H13X            4.9877501933        4.3484938638        1.8325853861  MEMB      1               0.0000000000
       236         7  POPC      H13Y            5.5529113693        6.0712117820        1.7515124197  MEMB      1               0.0000000000
       237         7  POPC      C314            3.5483222976        5.6684898847        1.1586640038  MEMB      1               0.0000000000
       238         7  POPC      H14X            2.8222268264        4.8406441263        1.3062365033  MEMB      1               0.0000000000
       239         7  POPC      H14Y            3.8719067719        5.5947096550        0.0983942965  MEMB      1               0.0000000000
       240         7  POPC      C315            2.9176659677        7.0618895821        1.4066408545  MEMB      1               0.0000000000
       241         7  POPC      H15X            2.5510394806        7.2179567047        2.4437274262  MEMB      1               0.0000000000
       242         7  POPC      H15Y            1.9012589272        7.0131679485        0.9606993870  MEMB      1               0.0000000000
       243         7  POPC      C316            3.6698722631        8.3004931626        0.9388648218  MEMB      1               0.0000000000
       244         7  POPC      H16X            3.8379559026        8.3590525964       -0.1577846590  MEMB      1               0.0000000000
       245         7  POPC      H16Y            4.6213439928        8.3493298660        1.5103864099  MEMB      1               0.0000000000
       246         7  POPC      H16Z            3.1059422400        9.2314676306        1.1615535552  MEMB      1               0.0000000000
       247         8  POPS      N              -3.8999806255       -5.2437153189       19.4012746108  MEMB      2               0.0000000000
       248         8  POPS      HN1            -4.2025007040       -5.6663549381       18.5004653507  MEMB      2               0.0000000000
       249         8  POPS      HN2            -2.9744922798       -4.8179798052       19.1919404447  MEMB      2               0.0000000000
       250         8  POPS      HN3            -3.7662739935       -5.9846236758       20.1187543811  MEMB      2               0.0000000000
       251         8  POPS      C12            -4.7636745074       -4.0751142710       19.7090534950  MEMB      2               0.0000000000
       252         8  POPS      H12A           -4.4082403250       -3.4099653604       18.9359794684  MEMB      2               0.0000000000
       253         8  POPS      C13            -4.5691038226       -3.5119192821       21.0896175462  MEMB      2               0.0000000000
       254         8  POPS      O13A           -3.8146648412       -4.0078264709       21.8993525315  MEMB      2               0.0000000000
       255         8  POPS      O13B           -5.3594727421       -2.5283206831       21.3176290980  MEMB      2               0.0000000000
       256         8  POPS      C11            -6.2724004583       -4.5145451240       19.6242474193  MEMB      2               0.0000000000
       257         8  POPS      H11A           -6.9089427981       -3.6187083231       19.4611181856  MEMB      2               0.0000000000
       258         8  POPS      H11B           -6.7276123330       -4.8429206496       20.5830344995  MEMB      2               0.0000000000
       259         8  POPS      P              -6.8501815570       -5.1020751892       17.1773157855  MEMB      2               0.0000000000
       260         8  POPS      O13            -6.0463027158       -3.8898494326       16.8334858948  MEMB      2               0.0000000000
       261         8  POPS      O14            -8.3128803804       -5.0123902051       16.9719293815  MEMB      2               0.0000000000
       262         8  POPS      O12            -6.5055647930       -5.5178923671       18.6549510717  MEMB      2               0.0000000000
       263         8  POPS      O11            -6.2481420237       -6.2572014670       16.3211431140  MEMB      2               0.0000000000
       264         8  POPS      C1             -4.8592728727       -6.5761947318       16.1826875067  MEMB      2               0.0000000000
       265         8  POPS      HA             -4.7542982772       -7.4789385709       16.8217140232  MEMB      2               0.0000000000
       266         8  POPS      HB             -4.2267866453       -5.7301048663       16.5268010180  MEMB      2               0.0000000000
       267         8  POPS      C2             -4.4901445444       -7.1313822107       14.6982176530  MEMB      2               0.0000000000
       268         8  POPS      HS             -3.4253734150       -6.9833706770       14.4177251990  MEMB      2               0.0000000000
       269         8  POPS      O21            -5.2734237805       -6.6224223984       13.6336651079  MEMB      2               0.0000000000
       270         8  POPS      C21            -5.2816943727       -5.3870856833       13.2125950434  MEMB      2               0.0000000000
       271         8  POPS      O22            -4.6082207268       -4.5140408415       13.7210516294  MEMB      2               0.0000000000
       272         8  POPS      C22            -6.2519760839       -5.2689631836       12.0900182510  MEMB      2               0.0000000000
       273         8  POPS      H2R            -7.0549353890       -4.5757822166       12.4202874568  MEMB      2               0.0000000000
       274         8  POPS      H2S            -6.6341926732       -6.2670318875       11.7865547867  MEMB      2               0.0000000000
       275         8  POPS      C3             -4.5779557739       -8.7004570131       14.5534545015  MEMB      2               0.0000000000
       276         8  POPS      HX             -3.9263784985       -9.1012810214       15.3591267367  MEMB      2               0.0000000000
       277         8  POPS      HY             -4.1780900739       -9.0272369081       13.5697657613  MEMB      2               0.0000000000
       278         8  POPS      O31            -5.9658718225       -9.0943680474       14.7980038580  MEMB      2               0.0000000000
       279         8  POPS      C31            -6.7022438402       -9.4023167906       13.8437630865  MEMB      2               0.0000000000
       280         8  POPS      O32            -6.3270202613       -9.5769236607       12.6777809387  MEMB      2               0.0000000000
       281         8  POPS      C32            -8.1394099344       -9.5323927770       14.2887831783  MEMB      2               0.0000000000
       282         8  POPS      H2X            -8.2579427866       -9.2234135316       15.3493503817  MEMB      2               0.0000000000
       283         8  POPS      H2Y            -8.4117985764      -10.6094780397       14.2852272113  MEMB      2               0.0000000000
       284         8  POPS      C23            -5.4787123723       -4.6188616575       10.8758156876  MEMB      2               0.0000000000
       285         8  POPS      H3R            -4.7820573327       -5.3560514660       10.4224461647  MEMB      2               0.0000000000
       286         8  POPS      H3S            -4.8446610783       -3.7821506706       11.2394289336  MEMB      2               0.0000000000
       287         8  POPS      C24            -6.4965880141       -4.0654931417        9.8546413112  MEMB      2               0.0000000000
       288         8  POPS      H4R            -6.9566961533       -3.2381381971       10.4361095744  MEMB      2               0.0000000000
       289         8  POPS      H4S            -7.2246342663       -4.8847017187        9.6725235254  MEMB      2               0.0000000000
       290         8  POPS      C25            -6.0055508383       -3.4339834801        8.5136798729  MEMB      2               0.0000000000
       291         8  POPS      H5R            -6.9611121711       -3.1433120910        8.0271273783  MEMB      2               0.0000000000
       292         8  POPS      H5S            -5.6456284910       -4.3606056671        8.0175467383  MEMB      2               0.0000000000
       293         8  POPS      C26            -4.8910296260       -2.3901133563        8.7020254919  MEMB      2               0.0000000000
       294         8  POPS      H6R            -4.0755178256       -2.9261820937        9.2329604727  MEMB      2               0.0000000000
       295         8  POPS      H6S            -5.3355521479       -1.5518182699        9.2799375350  MEMB      2               0.0000000000
       296         8  POPS      C27            -4.2261776819       -1.8500924659        7.4415123144  MEMB      2               0.0000000000
       297         8  POPS      H7R            -3.2479020209       -1.3383549422        7.5656982512  MEMB      2               0.0000000000
       298         8  POPS      H7S            -4.8665660200       -1.1190967322        6.9031169626  MEMB      2               0.0000000000
       299         8  POPS      C28            -4.0993509410       -2.9473754880        6.3016635893  MEMB      2               0.0000000000
       300         8  POPS      H8R            -3.6661036462       -2.3171542602        5.4957861968  MEMB      2               0.0000000000
       301         8  POPS      H8S            -5.1576109265       -3.2576389587        6.1669661612  MEMB      2               0.0000000000
       302         8  POPS      C29            -3.1683395771       -4.1056494464        6.6456927439  MEMB      2               0.0000000000
       303         8  POPS      H91            -3.4404092708       -4.8428012250        7.4154885055  MEMB      2               0.0000000000
       304         8  POPS      C210           -2.0795105167       -4.4423013056        5.9612631615  MEMB      2               0.0000000000
       305         8  POPS      H101           -1.4179462163       -5.2397865749        6.3305195117  MEMB      2               0.0000000000
       306         8  POPS      C211           -1.5024241195       -3.7056602403        4.6871919754  MEMB      2               0.0000000000
       307         8  POPS      H11R           -0.4981710586       -4.0246005984        4.3349502312  MEMB      2               0.0000000000
       308         8  POPS      H11S           -1.4100757120       -2.6195133714        4.9018488672  MEMB      2               0.0000000000
       309         8  POPS      C212           -2.3977886615       -3.7526687096        3.4412590068  MEMB      2               0.0000000000
       310         8  POPS      H12R           -2.0389946799       -3.0460861199        2.6625877294  MEMB      2               0.0000000000
       311         8  POPS      H12S           -3.4752899758       -3.6194198362        3.6769626576  MEMB      2               0.0000000000
       312         8  POPS      C213           -2.4482765481       -5.0796437950        2.5832938780  MEMB      2               0.0000000000
       313         8  POPS      H13R           -3.3376140816       -5.6054046141        2.9919205861  MEMB      2               0.0000000000
       314         8  POPS      H13S           -1.5455096095       -5.7037823966        2.7558745469  MEMB      2               0.0000000000
       315         8  POPS      C214           -2.6275781623       -4.9028140313        1.0181081675  MEMB      2               0.0000000000
       316         8  POPS      H14R           -1.6652432917       -4.5082642652        0.6275136729  MEMB      2               0.0000000000
       317         8  POPS      H14S           -3.4474508171       -4.2144069933        0.7210796572  MEMB      2               0.0000000000
       318         8  POPS      C215           -3.0562483274       -6.2282079979        0.2658648102  MEMB      2               0.0000000000
       319         8  POPS      H15R           -3.7670983472       -5.8741366574       -0.5110823929  MEMB      2               0.0000000000
       320         8  POPS      H15S           -3.6211803994       -6.9147779840        0.9320444381  MEMB      2               0.0000000000
       321         8  POPS      C216           -2.0138916836       -6.9478822938       -0.5789976469  MEMB      2               0.0000000000
       322         8  POPS      H16R           -2.5166491865       -7.6875371011       -1.2381386096  MEMB      2               0.0000000000
       323         8  POPS      H16S           -1.3674912565       -7.6126272951        0.0330496932  MEMB      2               0.0000000000
       324         8  POPS      C217           -1.0456711417       -6.0468659607       -1.3198242265  MEMB      2               0.0000000000
       325         8  POPS      H17R           -0.1571677761       -5.6476713739       -0.7854774571  MEMB      2               0.0000000000
       326         8  POPS      H17S           -1.5044523709       -5.1306674209       -1.7492672536  MEMB      2               0.0000000000
       327         8  POPS      C218           -0.4829941624       -6.8237953362       -2.5487008722  MEMB      2               0.0000000000
       328         8  POPS      H18R            0.1188509578       -7.6982799342       -2.2210128972  MEMB      2               0.0000000000
       329         8  POPS      H18S            0.0827791567       -6.1867265880       -3.2616981080  MEMB      2               0.0000000000
       330         8  POPS      H18T           -1.3325266713       -7.1802823089       -3.1696129631  MEMB      2               0.0000000000
       331         8  POPS      C33            -9.0432218309       -8.7308421085       13.3990486101  MEMB      2               0.0000000000
       332         8  POPS      H3X           -10.0502521449       -9.1892189888       13.4995585783  MEMB      2               0.0000000000
       333         8  POPS      H3Y            -8.8224732682       -8.8060862465       12.3128031445  MEMB      2               0.0000000000
       334         8  POPS      C34            -9.0207191459       -7.2067395282       13.7612701924  MEMB      2               0.0000000000
       335         8  POPS      H4X            -8.0652198219       -6.6407779327       13.7291858878  MEMB      2               0.0000000000
       336         8  POPS      H4Y            -9.4336132753       -7.0889284528       14.7859458986  MEMB      2               0.0000000000
       337         8  POPS      C35           -10.0779982176       -6.4898318337       12.8265315442  MEMB      2               0.0000000000
       338         8  POPS      H5X           -10.1622367953       -5.4562780308       13.2252684637  MEMB      2               0.0000000000
       339         8  POPS      H5Y           -11.1081770531       -6.8991425989       12.9008097212  MEMB      2               0.0000000000
       340         8  POPS      C36            -9.8571031367       -6.4171262725       11.3343300145  MEMB      2               0.0000000000
       341         8  POPS      H6X            -9.5093222363       -7.3360538001       10.8157341241  MEMB      2               0.0000000000
       342         8  POPS      H6Y            -8.9990986651       -5.7212122925       11.2166308507  MEMB      2               0.0000000000
       343         8  POPS      C37           -11.0474018399       -5.8617330094       10.5666289493  MEMB      2               0.0000000000
       344         8  POPS      H7X           -11.5892084165       -5.2858224980       11.3470736263  MEMB      2               0.0000000000
       345         8  POPS      H7Y           -11.7780633597       -6.6414560747       10.2625124379  MEMB      2               0.0000000000
       346         8  POPS      C38           -10.7154884679       -4.9927255196        9.3710204141  MEMB      2               0.0000000000
       347         8  POPS      H8X           -10.0949852442       -4.1299533337        9.6949343274  MEMB      2               0.0000000000
       348         8  POPS      H8Y           -11.6386477216       -4.4607758721        9.0561744258  MEMB      2               0.0000000000
       349         8  POPS      C39            -9.7996401801       -5.7101201806        8.3026719331  MEMB      2               0.0000000000
       350         8  POPS      H9X           -10.3159230644       -6.5843301623        7.8515281843  MEMB      2               0.0000000000
       351         8  POPS      H9Y            -8.9504098773       -6.2377722217        8.7871428440  MEMB      2               0.0000000000
       352         8  POPS      C310           -9.4072700735       -4.6416724821        7.2987095427  MEMB      2               0.0000000000
       353         8  POPS      H10X           -8.9331972037       -3.8095793854        7.8619113826  MEMB      2               0.0000000000
       354         8  POPS      H10Y          -10.3236531145       -4.2856918269        6.7811760648  MEMB      2               0.0000000000
       355         8  POPS      C311           -8.4057017909       -5.2450691560        6.2749431379  MEMB      2               0.0000000000
       356         8  POPS      H11X           -9.0329948074       -6.0757970948        5.8867221216  MEMB      2               0.0000000000
       357         8  POPS      H11Y           -7.5406377522       -5.5731624819        6.8900360790  MEMB      2               0.0000000000
       358         8  POPS      C312           -8.0363472039       -4.3508914755        5.0581337296  MEMB      2               0.0000000000
       359         8  POPS      H12X           -7.7055007937       -3.3369034479        5.3690844477  MEMB      2               0.0000000000
       360         8  POPS      H12Y           -8.9124768068       -4.1503840629        4.4050531289  MEMB      2               0.0000000000
       361         8  POPS      C313           -6.8434686227       -4.8908692275        4.1869919961  MEMB      2               0.0000000000
       362         8  POPS      H13X           -7.1213099142       -5.9322703357        3.9175319654  MEMB      2               0.0000000000
       363         8  POPS      H13Y           -5.9288564705       -4.8409244688        4.8157299535  MEMB      2               0.0000000000
       364         8  POPS      C314           -6.6452604078       -4.0371302208        2.9501818908  MEMB      2               0.0000000000
       365         8  POPS      H14X           -5.6495036900       -4.3299207007        2.5538692110  MEMB      2               0.0000000000
       366         8  POPS      H14Y           -6.6596298097       -2.9811918756        3.2953032036  MEMB      2               0.0000000000
       367         8  POPS      C315           -7.6537834323       -4.3997095954        1.8711808552  MEMB      2               0.0000000000
       368         8  POPS      H15X           -8.6710587988       -4.3613337025        2.3161535024  MEMB      2               0.0000000000
       369         8  POPS      H15Y           -7.3963466279       -5.4388068588        1.5739882299  MEMB      2               0.0000000000
       370         8  POPS      C316           -7.6386917110       -3.3708375457        0.6419014644  MEMB      2               0.0000000000
       371         8  POPS      H16X           -8.3991083543       -3.7571447120       -0.0700352650  MEMB      2               0.0000000000
       372         8  POPS      H16Y           -6.6791324309       -3.4647287077        0.0898590708  MEMB      2               0.0000000000
       373         8  POPS      H16Z           -7.7790536604       -2.3038957489        0.9180424040  MEMB      2               0.0000000000
       374         9  POPS      N              -5.9477952642        2.6909515839       17.8042328453  MEMB      3               0.0000000000
       375         9  POPS      HN1            -5.9289614566        3.7216056815       17.6664014742  MEMB      3               0.0000000000
       376         9  POPS      HN2            -5.0220556445        2.2675018950       18.0170626522  MEMB      3               0.0000000000
       377         9  POPS      HN3            -6.2289999607        2.1531747588       16.9596501500  MEMB      3               0.0000000000
       378         9  POPS      C12            -6.8692576462        2.4324428631       18.9485948281  MEMB      3               0.0000000000
       379         9  POPS      H12A           -6.2629449674        1.8325216725       19.6110746493  MEMB      3               0.0000000000
       380         9  POPS      C13            -8.1578558408        1.7248125212       18.4903416710  MEMB      3               0.0000000000
       381         9  POPS      O13A           -8.2894972969        1.1669135304       17.2979809271  MEMB      3               0.0000000000
       382         9  POPS      O13B           -9.1117532041        1.7084527693       19.3244258525  MEMB      3               0.0000000000
       383         9  POPS      C11            -7.2744340396        3.7730667581       19.6514020672  MEMB      3               0.0000000000
       384         9  POPS      H11A           -7.9246684959        3.6581358184       20.5448823768  MEMB      3               0.0000000000
       385         9  POPS      H11B           -7.9200261662        4.2485155082       18.8823244889  MEMB      3               0.0000000000
       386         9  POPS      P              -5.7223056858        5.7760824306       19.5571629698  MEMB      3               0.0000000000
       387         9  POPS      O13            -4.5509339160        6.2496324625       20.3504083258  MEMB      3               0.0000000000
       388         9  POPS      O14            -6.9381730094        6.6899668941       19.3997118119  MEMB      3               0.0000000000
       389         9  POPS      O12            -6.0977599454        4.3077792043       20.0645672558  MEMB      3               0.0000000000
       390         9  POPS      O11            -5.2313573025        5.4163317589       18.1111714817  MEMB      3               0.0000000000
       391         9  POPS      C1             -4.3661136126        6.0757500879       17.2655678510  MEMB      3               0.0000000000
       392         9  POPS      HA             -3.3466591196        5.7051819387       17.5058024405  MEMB      3               0.0000000000
       393         9  POPS      HB             -4.2764243681        7.1539503048       17.5180778039  MEMB      3               0.0000000000
       394         9  POPS      C2             -4.5664424996        5.8121916117       15.7720379269  MEMB      3               0.0000000000
       395         9  POPS      HS             -4.0496098394        6.5946432321       15.1762411161  MEMB      3               0.0000000000
       396         9  POPS      O21            -6.0022774712        5.7186158962       15.5711741450  MEMB      3               0.0000000000
       397         9  POPS      C21            -6.6255081009        6.8235782776       15.0722726220  MEMB      3               0.0000000000
       398         9  POPS      O22            -6.1091133798        7.9349701933       14.9136337229  MEMB      3               0.0000000000
       399         9  POPS      C22            -8.0718857939        6.5040425442       14.7569329091  MEMB      3               0.0000000000
       400         9  POPS      H2R            -8.6011159106        7.4714487449       14.8924384729  MEMB      3               0.0000000000
       401         9  POPS      H2S            -8.5214594706        5.7324424202       15.4178696437  MEMB      3               0.0000000000
       402         9  POPS      C3             -3.9068797083        4.4794368670       15.2387623060  MEMB      3               0.0000000000
       403         9  POPS      HX             -4.3218031152        3.5873283972       15.7548069981  MEMB      3               0.0000000000
       404         9  POPS      HY             -2.8432492588        4.5527866319       15.5512223351  MEMB      3               0.0000000000
       405         9  POPS      O31            -4.0830625090        4.3744707403       13.8350952802  MEMB      3               0.0000000000
       406         9  POPS      C31            -5.1029610789        3.7010063946       13.3521990654  MEMB      3               0.0000000000
       407         9  POPS      O32            -5.9714778776        3.1023039004       14.0654366991  MEMB      3               0.0000000000
       408         9  POPS      C32            -5.1255623780        3.7219349186       11.8324378344  MEMB      3               0.0000000000
       409         9  POPS      H2X            -4.0976029017        3.5364533741       11.4539977372  MEMB      3               0.0000000000
       410         9  POPS      H2Y            -5.5719116110        4.6821494440       11.4961617563  MEMB      3               0.0000000000
       411         9  POPS      C23            -8.2845276023        5.8310986152       13.3598460236  MEMB      3               0.0000000000
       412         9  POPS      H3R            -9.2753409031        5.3291714298       13.3859076053  MEMB      3               0.0000000000
       413         9  POPS      H3S            -7.5289667338        5.0273669712       13.2276941461  MEMB      3               0.0000000000
       414         9  POPS      C24            -8.2921871549        6.9517322989       12.2740709122  MEMB      3               0.0000000000
       415         9  POPS      H4R            -7.2888112021        7.4102804911       12.1425741898  MEMB      3               0.0000000000
       416         9  POPS      H4S            -8.9966425951        7.7195244486       12.6595040051  MEMB      3               0.0000000000
       417         9  POPS      C25            -8.6502060418        6.4911750133       10.7692644988  MEMB      3               0.0000000000
       418         9  POPS      H5R            -9.5838692405        5.8890231996       10.7665685540  MEMB      3               0.0000000000
       419         9  POPS      H5S            -7.8790655203        5.7482982202       10.4729588417  MEMB      3               0.0000000000
       420         9  POPS      C26            -8.7463035467        7.7132135710        9.8795501531  MEMB      3               0.0000000000
       421         9  POPS      H6R            -7.7639610772        8.2209014378        9.9871474181  MEMB      3               0.0000000000
       422         9  POPS      H6S            -9.6313798412        8.2934757467       10.2175689127  MEMB      3               0.0000000000
       423         9  POPS      C27            -8.9945434201        7.4175544896        8.4201379451  MEMB      3               0.0000000000
       424         9  POPS      H7R            -9.5820301962        8.2710228168        8.0191735290  MEMB      3               0.0000000000
       425         9  POPS      H7S            -9.7917584902        6.6462426629        8.4821611104  MEMB      3               0.0000000000
       426         9  POPS      C28            -7.8416703598        6.8239686700        7.5498649540  MEMB      3               0.0000000000
       427         9  POPS      H8R            -8.1028820754        6.7765753638        6.4710488887  MEMB      3               0.0000000000
       428         9  POPS      H8S            -7.5916834957        5.8645849934        8.0512735393  MEMB      3               0.0000000000
       429         9  POPS      C29            -6.6297193636        7.7078529679        7.5065017705  MEMB      3               0.0000000000
       430         9  POPS      H91            -6.7858947763        8.4681264667        6.7270191516  MEMB      3               0.0000000000
       431         9  POPS      C210           -5.4318767962        7.5230764536        8.1166664671  MEMB      3               0.0000000000
       432         9  POPS      H101           -4.7410313307        8.3726521905        8.0120076283  MEMB      3               0.0000000000
       433         9  POPS      C211           -4.9219566560        6.4051051262        9.0261251178  MEMB      3               0.0000000000
       434         9  POPS      H11R           -5.7860422603        5.9008189071        9.5092117721  MEMB      3               0.0000000000
       435         9  POPS      H11S           -4.3688443332        6.8642187745        9.8732395310  MEMB      3               0.0000000000
       436         9  POPS      C212           -4.0394427783        5.3626691006        8.3591251980  MEMB      3               0.0000000000
       437         9  POPS      H12R           -3.7079262936        4.5538875789        9.0449020830  MEMB      3               0.0000000000
       438         9  POPS      H12S           -3.1846098313        5.8132126253        7.8108623063  MEMB      3               0.0000000000
       439         9  POPS      C213           -4.7467842439        4.6759294310        7.2245862813  MEMB      3               0.0000000000
       440         9  POPS      H13R           -4.9115974880        5.3536414610        6.3597947687  MEMB      3               0.0000000000
       441         9  POPS      H13S           -5.7206966110        4.3892514847        7.6758417095  MEMB      3               0.0000000000
       442         9  POPS      C214           -4.0842678677        3.3898887220        6.6428003182  MEMB      3               0.0000000000
       443         9  POPS      H14R           -4.0920009870        2.6248017329        7.4483450185  MEMB      3               0.0000000000
       444         9  POPS      H14S           -2.9932539231        3.5116671297        6.4719804898  MEMB      3               0.0000000000
       445         9  POPS      C215           -4.7130286124        2.7244836802        5.4154976326  MEMB      3               0.0000000000
       446         9  POPS      H15R           -5.7864566470        2.5325562277        5.6281882738  MEMB      3               0.0000000000
       447         9  POPS      H15S           -4.1862671047        1.7624422320        5.2385244247  MEMB      3               0.0000000000
       448         9  POPS      C216           -4.5491878087        3.5990784643        4.1379907207  MEMB      3               0.0000000000
       449         9  POPS      H16R           -3.5043504619        3.8476128955        3.8536203936  MEMB      3               0.0000000000
       450         9  POPS      H16S           -4.9018492000        4.6523480322        4.1619527745  MEMB      3               0.0000000000
       451         9  POPS      C217           -5.0964999300        2.9588867771        2.8706587454  MEMB      3               0.0000000000
       452         9  POPS      H17R           -5.0683545897        3.6744381428        2.0212382573  MEMB      3               0.0000000000
       453         9  POPS      H17S           -6.1290217613        2.6172999094        3.0976777415  MEMB      3               0.0000000000
       454         9  POPS      C218           -4.1996121437        1.7870816131        2.4197045863  MEMB      3               0.0000000000
       455         9  POPS      H18R           -3.1633381752        2.0783174512        2.1446797927  MEMB      3               0.0000000000
       456         9  POPS      H18S           -4.6252873068        1.2914518497        1.5211093137  MEMB      3               0.0000000000
       457         9  POPS      H18T           -4.3371498292        0.9620219852        3.1509231116  MEMB      3               0.0000000000
       458         9  POPS      C33            -5.9964909834        2.6304375769       11.1206211543  MEMB      3               0.0000000000
       459         9  POPS      H3X            -5.6468726821        1.6227699150       11.4315775778  MEMB      3               0.0000000000
       460         9  POPS      H3Y            -5.6033529265        2.7126344329       10.0847599962  MEMB      3               0.0000000000
       461         9  POPS      C34            -7.5161910197        2.7177771537       11.2391128428  MEMB      3               0.0000000000
       462         9  POPS      H4X            -7.7320674504        3.7521072037       10.8957773204  MEMB      3               0.0000000000
       463         9  POPS      H4Y            -7.8568631822        2.6348974501       12.2933400121  MEMB      3               0.0000000000
       464         9  POPS      C35            -8.2682613376        1.6989351681       10.3728501885  MEMB      3               0.0000000000
       465         9  POPS      H5X            -9.3336672031        1.8442065419       10.6523634608  MEMB      3               0.0000000000
       466         9  POPS      H5Y            -7.9548325566        0.6503507533       10.5640415032  MEMB      3               0.0000000000
       467         9  POPS      C36            -8.0817357389        1.8995905539        8.9294247384  MEMB      3               0.0000000000
       468         9  POPS      H6X            -6.9871503101        1.7458751060        8.8172865990  MEMB      3               0.0000000000
       469         9  POPS      H6Y            -8.1815940061        2.9466191755        8.5715418133  MEMB      3               0.0000000000
       470         9  POPS      C37            -8.7601885261        0.7561690342        8.0790565314  MEMB      3               0.0000000000
       471         9  POPS      H7X            -9.8555658648        0.7277228823        8.2625259329  MEMB      3               0.0000000000
       472         9  POPS      H7Y            -8.2569233556       -0.1553939319        8.4664828270  MEMB      3               0.0000000000
       473         9  POPS      C38            -8.3853567218        0.9905801407        6.6060758697  MEMB      3               0.0000000000
       474         9  POPS      H8X            -8.5233342196        0.0148146295        6.0930802902  MEMB      3               0.0000000000
       475         9  POPS      H8Y            -7.3377932964        1.3009128648        6.4045186497  MEMB      3               0.0000000000
       476         9  POPS      C39            -9.3162062512        2.0172009303        5.8945709407  MEMB      3               0.0000000000
       477         9  POPS      H9X            -9.3436921356        2.9418291171        6.5098990228  MEMB      3               0.0000000000
       478         9  POPS      H9Y           -10.3390309220        1.5959643868        5.9980629808  MEMB      3               0.0000000000
       479         9  POPS      C310           -9.1089889883        2.1786249361        4.4323739045  MEMB      3               0.0000000000
       480         9  POPS      H10X           -8.0926576193        2.5686792533        4.2104523565  MEMB      3               0.0000000000
       481         9  POPS      H10Y           -9.7318410662        3.0003425914        4.0186627716  MEMB      3               0.0000000000
       482         9  POPS      C311           -9.2398464049        0.8654341110        3.6422652874  MEMB      3               0.0000000000
       483         9  POPS      H11X          -10.2676175129        0.4450430692        3.6065032602  MEMB      3               0.0000000000
       484         9  POPS      H11Y           -8.5806808203        0.0698284084        4.0507183321  MEMB      3               0.0000000000
       485         9  POPS      C312           -8.7077347541        1.1535515926        2.1971676288  MEMB      3               0.0000000000
       486         9  POPS      H12X           -8.7208524034        0.2130301018        1.6059247629  MEMB      3               0.0000000000
       487         9  POPS      H12Y           -7.6546489847        1.4554363501        2.3820919487  MEMB      3               0.0000000000
       488         9  POPS      C313           -9.5420499477        2.2669658936        1.4615287965  MEMB      3               0.0000000000
       489         9  POPS      H13X           -8.8971891880        3.1589455500        1.6126839740  MEMB      3               0.0000000000
       490         9  POPS      H13Y          -10.4453515209        2.3128078314        2.1067156559  MEMB      3               0.0000000000
       491         9  POPS      C314           -9.7424323673        2.2121299801       -0.0683189778  MEMB      3               0.0000000000
       492         9  POPS      H14X          -10.2385790944        3.1853534929       -0.2707922163  MEMB      3               0.0000000000
       493         9  POPS      H14Y          -10.4646159406        1.3920371455       -0.2688682430  MEMB      3               0.0000000000
       494         9  POPS      C315           -8.4334505904        1.9394908363       -0.8230578106  MEMB      3               0.0000000000
       495         9  POPS      H15X           -7.8324323825        1.1941377301       -0.2595458641  MEMB      3               0.0000000000
       496         9  POPS      H15Y           -7.8446282046        2.8742454711       -0.9407150041  MEMB      3               0.0000000000
       497         9  POPS      C316           -8.7351725010        1.4972159370       -2.2701965752  MEMB      3               0.0000000000
       498         9  POPS      H16X           -9.4456796847        2.1936651209       -2.7646242800  MEMB      3               0.0000000000
       499         9  POPS      H16Y           -9.2961097980        0.5382368027       -2.2756227483  MEMB      3               0.0000000000
       500         9  POPS      H16Z           -7.8238776677        1.3216940328       -2.8809784051  MEMB      3               0.0000000000
       501        10  POPC      N               6.7634726215       -2.1000797346       20.7713187057  MEMB      4               0.0000000000
       502        10  POPC      C12             5.3409060990       -1.5176316513       20.5106068653  MEMB      4               0.0000000000
       503        10  POPC      H12A            5.0053588021       -1.0513419011       21.4251461919  MEMB      4               0.0000000000
       504        10  POPC      H12B            4.7245697634       -2.3993057052       20.4147939017  MEMB      4               0.0000000000
       505        10  POPC      C13             7.8792424178       -0.9949274733       20.8230183624  MEMB      4               0.0000000000
       506        10  POPC      H13A            7.7630260244       -0.4999183706       19.8702016497  MEMB      4               0.0000000000
       507        10  POPC      H13B            7.6477103624       -0.3253105801       21.6381294252  MEMB      4               0.0000000000
       508        10  POPC      H13C            8.8553127320       -1.4528760473       20.7600121125  MEMB      4               0.0000000000
       509        10  POPC      C14             6.7293012376       -2.6537445204       22.1649488005  MEMB      4               0.0000000000
       510        10  POPC      H14A            7.6748998276       -3.0176825472       22.5388372339  MEMB      4               0.0000000000
       511        10  POPC      H14B            6.4272371970       -1.9171767635       22.8947607211  MEMB      4               0.0000000000
       512        10  POPC      H14C            5.9556032634       -3.3994861901       22.2729333347  MEMB      4               0.0000000000
       513        10  POPC      C15             7.1271098967       -3.2223257032       19.7858021301  MEMB      4               0.0000000000
       514        10  POPC      H15A            6.3513853845       -3.9130041743       19.4898040946  MEMB      4               0.0000000000
       515        10  POPC      H15B            8.1188120773       -3.6334024673       19.9038812420  MEMB      4               0.0000000000
       516        10  POPC      H15C            7.3629267887       -2.6670761587       18.8899851055  MEMB      4               0.0000000000
       517        10  POPC      C11             5.1728558318       -0.6616267227       19.2463434156  MEMB      4               0.0000000000
       518        10  POPC      H11A            5.4578894415        0.3953936478       19.4355120425  MEMB      4               0.0000000000
       519        10  POPC      H11B            4.0652763091       -0.6374469756       19.1626556690  MEMB      4               0.0000000000
       520        10  POPC      P               6.8699857043       -0.3698514707       17.2076680534  MEMB      4               0.0000000000
       521        10  POPC      O13             8.1820463416       -1.0835469610       17.3860503836  MEMB      4               0.0000000000
       522        10  POPC      O14             6.8753360080        1.0952685542       17.3790306018  MEMB      4               0.0000000000
       523        10  POPC      O12             5.7079327358       -1.1652073136       18.0041322421  MEMB      4               0.0000000000
       524        10  POPC      O11             6.4436305795       -0.5534426707       15.7210804341  MEMB      4               0.0000000000
       525        10  POPC      C1              5.3242485592       -1.4342655834       15.4245406261  MEMB      4               0.0000000000
       526        10  POPC      HA              4.9032227848       -1.1471179961       14.4373199788  MEMB      4               0.0000000000
       527        10  POPC      HB              4.4641714012       -1.3093911592       16.1166352108  MEMB      4               0.0000000000
       528        10  POPC      C2              5.7965730018       -2.9809771324       15.5065357601  MEMB      4               0.0000000000
       529        10  POPC      HS              5.8728571052       -3.2519238293       16.5812867903  MEMB      4               0.0000000000
       530        10  POPC      O21             7.0795386287       -3.0302931730       14.8667273898  MEMB      4               0.0000000000
       531        10  POPC      C21             8.0402748144       -3.9837128194       15.2801643487  MEMB      4               0.0000000000
       532        10  POPC      O22             7.8253426724       -4.8999397585       16.0685523203  MEMB      4               0.0000000000
       533        10  POPC      C22             9.3968169928       -3.5978132861       14.7855426214  MEMB      4               0.0000000000
       534        10  POPC      H2R            10.1526637904       -4.0104422265       15.4875069829  MEMB      4               0.0000000000
       535        10  POPC      H2S             9.5877307233       -2.5114449315       14.6525890584  MEMB      4               0.0000000000
       536        10  POPC      C3              4.8408779625       -4.0075799583       14.8166624100  MEMB      4               0.0000000000
       537        10  POPC      HX              3.9122609177       -4.0115321109       15.4265608338  MEMB      4               0.0000000000
       538        10  POPC      HY              5.3176717767       -5.0090471446       14.8803171791  MEMB      4               0.0000000000
       539        10  POPC      O31             4.4209826235       -3.6506020524       13.4834576013  MEMB      4               0.0000000000
       540        10  POPC      C31             5.0122114234       -4.3779767920       12.6169803861  MEMB      4               0.0000000000
       541        10  POPC      O32             5.8532131212       -5.2806667877       12.7606257850  MEMB      4               0.0000000000
       542        10  POPC      C32             4.2750133231       -3.9613918999       11.2804257965  MEMB      4               0.0000000000
       543        10  POPC      H2X             4.1564608518       -2.8570667407       11.2533647967  MEMB      4               0.0000000000
       544        10  POPC      H2Y             3.2257720309       -4.3047197028       11.4050842119  MEMB      4               0.0000000000
       545        10  POPC      C23             9.6178382704       -4.2475729986       13.4071759272  MEMB      4               0.0000000000
       546        10  POPC      H3R             9.0857302242       -5.2222945890       13.3740124424  MEMB      4               0.0000000000
       547        10  POPC      H3S            10.7033783633       -4.4253402214       13.2512188423  MEMB      4               0.0000000000
       548        10  POPC      C24             9.1360222542       -3.3511981801       12.2282492557  MEMB      4               0.0000000000
       549        10  POPC      H4R             8.0754853542       -3.0327934956       12.3188102949  MEMB      4               0.0000000000
       550        10  POPC      H4S             9.3199398493       -3.9493442901       11.3102530513  MEMB      4               0.0000000000
       551        10  POPC      C25             9.9410262294       -2.0492856945       11.9440851189  MEMB      4               0.0000000000
       552        10  POPC      H5R            10.0621016347       -1.8636417896       10.8554168196  MEMB      4               0.0000000000
       553        10  POPC      H5S            10.8730836679       -2.2588456237       12.5112482818  MEMB      4               0.0000000000
       554        10  POPC      C26             9.1143704183       -0.8660836314       12.5709590372  MEMB      4               0.0000000000
       555        10  POPC      H6R             9.7546101090        0.0417252805       12.5881978597  MEMB      4               0.0000000000
       556        10  POPC      H6S             8.7250144808       -1.1585062901       13.5695641557  MEMB      4               0.0000000000
       557        10  POPC      C27             7.8656254033       -0.4306864027       11.8052583573  MEMB      4               0.0000000000
       558        10  POPC      H7R             7.0117046506       -1.1159687844       11.9937481401  MEMB      4               0.0000000000
       559        10  POPC      H7S             8.0682829963       -0.3053841222       10.7201083717  MEMB      4               0.0000000000
       560        10  POPC      C28             7.3349115495        0.9406095352       12.2418536708  MEMB      4               0.0000000000
       561        10  POPC      H8R             7.2395253462        1.1725590135       13.3241764071  MEMB      4               0.0000000000
       562        10  POPC      H8S             6.2567515622        0.9081620124       11.9756976340  MEMB      4               0.0000000000
       563        10  POPC      C29             8.1429098376        2.1059450799       11.5048468153  MEMB      4               0.0000000000
       564        10  POPC      H91             9.0562594067        2.3413942137       12.0708469248  MEMB      4               0.0000000000
       565        10  POPC      C210            7.8727337185        2.7454900982       10.3480229988  MEMB      4               0.0000000000
       566        10  POPC      H101            8.6019333918        3.4729872047        9.9619969676  MEMB      4               0.0000000000
       567        10  POPC      C211            6.7398214513        2.5452056884        9.3272740262  MEMB      4               0.0000000000
       568        10  POPC      H11R            6.4386072391        3.3914466864        8.6734644938  MEMB      4               0.0000000000
       569        10  POPC      H11S            5.8552664952        2.1072023867        9.8372121175  MEMB      4               0.0000000000
       570        10  POPC      C212            7.2219293044        1.4910075012        8.3216352275  MEMB      4               0.0000000000
       571        10  POPC      H12R            7.5405470759        0.5327191734        8.7847629795  MEMB      4               0.0000000000
       572        10  POPC      H12S            8.1469263101        1.7783880570        7.7774718577  MEMB      4               0.0000000000
       573        10  POPC      C213            6.0612231324        1.2016413828        7.3255974560  MEMB      4               0.0000000000
       574        10  POPC      H13R            5.8475387099        2.1164626826        6.7325031177  MEMB      4               0.0000000000
       575        10  POPC      H13S            5.1745590812        1.0557586743        7.9789481023  MEMB      4               0.0000000000
       576        10  POPC      C214            6.2986706385        0.0078746268        6.5027369613  MEMB      4               0.0000000000
       577        10  POPC      H14R            6.3075733235       -0.8666042304        7.1879580146  MEMB      4               0.0000000000
       578        10  POPC      H14S            7.3104984857        0.1376443113        6.0626398444  MEMB      4               0.0000000000
       579        10  POPC      C215            5.4028068345       -0.3356567805        5.3125110219  MEMB      4               0.0000000000
       580        10  POPC      H15R            4.3954399586       -0.4110379647        5.7749506876  MEMB      4               0.0000000000
       581        10  POPC      H15S            5.4690989503       -1.3211793331        4.8039140657  MEMB      4               0.0000000000
       582        10  POPC      C216            5.1959551471        0.7374705371        4.2344891594  MEMB      4               0.0000000000
       583        10  POPC      H16R            4.8544113716        1.7583984073        4.5090355757  MEMB      4               0.0000000000
       584        10  POPC      H16S            4.2868701774        0.4313102102        3.6739979052  MEMB      4               0.0000000000
       585        10  POPC      C217            6.2712765427        0.8931403833        3.1942342423  MEMB      4               0.0000000000
       586        10  POPC      H17R            6.5201867468       -0.0902004221        2.7410170977  MEMB      4               0.0000000000
       587        10  POPC      H17S            7.1818159756        1.2043547954        3.7495580448  MEMB      4               0.0000000000
       588        10  POPC      C218            5.9803239660        1.8180939680        1.9624051190  MEMB      4               0.0000000000
       589        10  POPC      H18R            5.0711038812        1.4448967384        1.4443664948  MEMB      4               0.0000000000
       590        10  POPC      H18S            6.8783509587        1.6818848420        1.3226269110  MEMB      4               0.0000000000
       591        10  POPC      H18T            5.8063341136        2.8714706349        2.2697241457  MEMB      4               0.0000000000
       592        10  POPC      C33             4.9860898687       -4.5089209753       10.0491699250  MEMB      4               0.0000000000
       593        10  POPC      H3X             4.2843698986       -4.4100829657        9.1935168471  MEMB      4               0.0000000000
       594        10  POPC      H3Y             5.1746587565       -5.5957881118       10.1813922194  MEMB      4               0.0000000000
       595        10  POPC      C34             6.3650295444       -3.8779619719        9.6231805293  MEMB      4               0.0000000000
       596        10  POPC      H4X             7.0334034234       -4.2099617379       10.4462071910  MEMB      4               0.0000000000
       597        10  POPC      H4Y             6.3596746699       -2.7678500604        9.5790910024  MEMB      4               0.0000000000
       598        10  POPC      C35             6.8597032327       -4.2934185401        8.2718613056  MEMB      4               0.0000000000
       599        10  POPC      H5X             6.0380780017       -4.2574168026        7.5248961557  MEMB      4               0.0000000000
       600        10  POPC      H5Y             7.1675772986       -5.3425834148        8.4688068257  MEMB      4               0.0000000000
       601        10  POPC      C36             8.0551935293       -3.4318583117        7.7866867033  MEMB      4               0.0000000000
       602        10  POPC      H6X             8.7820564128       -3.2013860142        8.5946925798  MEMB      4               0.0000000000
       603        10  POPC      H6Y             7.6617171547       -2.4663938359        7.4027917299  MEMB      4               0.0000000000
       604        10  POPC      C37             8.9154125902       -4.0280820646        6.5853981008  MEMB      4               0.0000000000
       605        10  POPC      H7X             8.1708539652       -4.4399924546        5.8710571980  MEMB      4               0.0000000000
       606        10  POPC      H7Y             9.4294835245       -4.9380153754        6.9623245024  MEMB      4               0.0000000000
       607        10  POPC      C38             9.9108318863       -3.0689667359        5.8391280354  MEMB      4               0.0000000000
       608        10  POPC      H8X            10.7751935860       -3.6081113233        5.3958191968  MEMB      4               0.0000000000
       609        10  POPC      H8Y            10.3123374425       -2.4939982566        6.7008276857  MEMB      4               0.0000000000
       610        10  POPC      C39             9.2502098359       -2.0343518700        4.8306734640  MEMB      4               0.0000000000
       611        10  POPC      H9X             9.9043105386       -1.1423424679        4.9345627288  MEMB      4               0.0000000000
       612        10  POPC      H9Y             8.2755366196       -1.8145492512        5.3164914028  MEMB      4               0.0000000000
       613        10  POPC      C310            9.1387344914       -2.4592221272        3.3751537322  MEMB      4               0.0000000000
       614        10  POPC      H10X           10.0759781333       -2.9692843004        3.0657472895  MEMB      4               0.0000000000
       615        10  POPC      H10Y            9.1185766455       -1.5480361579        2.7398149482  MEMB      4               0.0000000000
       616        10  POPC      C311            7.9418326510       -3.4053780898        3.0407347131  MEMB      4               0.0000000000
       617        10  POPC      H11X            6.9863300777       -2.9837203253        3.4196022933  MEMB      4               0.0000000000
       618        10  POPC      H11Y            8.1866663363       -4.3129311609        3.6329549419  MEMB      4               0.0000000000
       619        10  POPC      C312            7.7537959592       -3.7834454724        1.6132962809  MEMB      4               0.0000000000
       620        10  POPC      H12X            8.7395003104       -4.2353163906        1.3713870054  MEMB      4               0.0000000000
       621        10  POPC      H12Y            7.5230188292       -2.8842255077        1.0029962564  MEMB      4               0.0000000000
       622        10  POPC      C313            6.6114109409       -4.8464161871        1.4301772122  MEMB      4               0.0000000000
       623        10  POPC      H13X            5.6168436896       -4.3614223869        1.5298666808  MEMB      4               0.0000000000
       624        10  POPC      H13Y            6.7324890995       -5.6749115202        2.1604217074  MEMB      4               0.0000000000
       625        10  POPC      C314            6.8308347127       -5.4862152703        0.1217576827  MEMB      4               0.0000000000
       626        10  POPC      H14X            7.9377709625       -5.5798386826        0.1060135951  MEMB      4               0.0000000000
       627        10  POPC      H14Y            6.6431767768       -4.6550612472       -0.5911869543  MEMB      4               0.0000000000
       628        10  POPC      C315            6.1340457559       -6.8264697623       -0.1793706341  MEMB      4               0.0000000000
       629        10  POPC      H15X            6.4271977785       -7.4976539748        0.6560298054  MEMB      4               0.0000000000
       630        10  POPC      H15Y            6.3822553569       -7.2496129178       -1.1761973664  MEMB      4               0.0000000000
       631        10  POPC      C316            4.6093134136       -6.6973720188       -0.3407507194  MEMB      4               0.0000000000
       632        10  POPC      H16X            4.2507303845       -6.3206514923        0.6409933417  MEMB      4               0.0000000000
       633        10  POPC      H16Y            4.1821314747       -7.6985767967       -0.5630691610  MEMB      4               0.0000000000
       634        10  POPC      H16Z            4.3186311773       -6.0046171629       -1.1592346405  MEMB      4               0.0000000000
       635        11  POPC      N               1.0745524201       -6.4409008622       17.4343293080  MEMB      5               0.0000000000
       636        11  POPC      C12             1.7254962282       -6.0408120390       18.7703900897  MEMB      5               0.0000000000
       637        11  POPC      H12A            0.9342120586       -5.7897214127       19.4612033577  MEMB      5               0.0000000000
       638        11  POPC      H12B            2.1990798580       -5.0828484381       18.6141073375  MEMB      5               0.0000000000
       639        11  POPC      C13             0.0803440796       -7.5499485582       17.7265655636  MEMB      5               0.0000000000
       640        11  POPC      H13A           -0.6085572024       -7.7622346132       16.9223580593  MEMB      5               0.0000000000
       641        11  POPC      H13B            0.5616265462       -8.4674344381       18.0315029372  MEMB      5               0.0000000000
       642        11  POPC      H13C           -0.4581262874       -7.2264305151       18.6050790094  MEMB      5               0.0000000000
       643        11  POPC      C14             0.4089476771       -5.2427799429       16.9414336479  MEMB      5               0.0000000000
       644        11  POPC      H14A           -0.3724499530       -5.3608879174       16.2053166439  MEMB      5               0.0000000000
       645        11  POPC      H14B           -0.1654447566       -4.8287995416       17.7569661213  MEMB      5               0.0000000000
       646        11  POPC      H14C            1.0117297239       -4.4359720272       16.5514147036  MEMB      5               0.0000000000
       647        11  POPC      C15             2.1253825746       -6.7855901674       16.4318635557  MEMB      5               0.0000000000
       648        11  POPC      H15A            2.7120219445       -7.6090925203       16.8114661553  MEMB      5               0.0000000000
       649        11  POPC      H15B            2.7384266183       -5.9068247988       16.2964077279  MEMB      5               0.0000000000
       650        11  POPC      H15C            1.6853671615       -7.0533389165       15.4826022406  MEMB      5               0.0000000000
       651        11  POPC      C11             2.6859765974       -7.0081608205       19.4496005677  MEMB      5               0.0000000000
       652        11  POPC      H11A            3.0637591172       -6.4899386709       20.3568200674  MEMB      5               0.0000000000
       653        11  POPC      H11B            3.4429719576       -7.3284529256       18.7021435613  MEMB      5               0.0000000000
       654        11  POPC      P               2.6954733497       -9.2701698475       20.5737137276  MEMB      5               0.0000000000
       655        11  POPC      O13             1.6323290713      -10.1986673887       21.0159132689  MEMB      5               0.0000000000
       656        11  POPC      O14             3.8069438137       -8.8134320971       21.5021254610  MEMB      5               0.0000000000
       657        11  POPC      O12             1.9114635334       -8.0812710835       19.9207574211  MEMB      5               0.0000000000
       658        11  POPC      O11             3.2636261891       -9.8828598902       19.2333073672  MEMB      5               0.0000000000
       659        11  POPC      C1              2.4377749058      -10.3860193225       18.1883536586  MEMB      5               0.0000000000
       660        11  POPC      HA              1.9931508717       -9.5347893571       17.6297499595  MEMB      5               0.0000000000
       661        11  POPC      HB              1.6368719099      -10.9423600042       18.7206696788  MEMB      5               0.0000000000
       662        11  POPC      C2              3.2806324927      -11.2856964122       17.1961628992  MEMB      5               0.0000000000
       663        11  POPC      HS              3.6591183703      -12.1351686944       17.8040004983  MEMB      5               0.0000000000
       664        11  POPC      O21             4.4121857627      -10.4968964482       16.8509899629  MEMB      5               0.0000000000
       665        11  POPC      C21             5.3909667581      -11.0208734092       16.0282379532  MEMB      5               0.0000000000
       666        11  POPC      O22             5.2695742304      -12.0707499652       15.4356258570  MEMB      5               0.0000000000
       667        11  POPC      C22             6.4389450174       -9.9962945904       15.8760932989  MEMB      5               0.0000000000
       668        11  POPC      H2R             7.3379102471      -10.4051768832       15.3671750007  MEMB      5               0.0000000000
       669        11  POPC      H2S             6.7874928922       -9.7169502696       16.8933456994  MEMB      5               0.0000000000
       670        11  POPC      C3              2.4432610722      -11.7353559310       15.9491578541  MEMB      5               0.0000000000
       671        11  POPC      HX              1.5323191332      -12.2735574806       16.2880454986  MEMB      5               0.0000000000
       672        11  POPC      HY              3.0485509287      -12.3092241308       15.2152501194  MEMB      5               0.0000000000
       673        11  POPC      O31             1.9448734487      -10.5408398509       15.3812307424  MEMB      5               0.0000000000
       674        11  POPC      C31             1.0797652162      -10.8003402772       14.4103751455  MEMB      5               0.0000000000
       675        11  POPC      O32             0.7881375505      -11.8652648784       13.9522961163  MEMB      5               0.0000000000
       676        11  POPC      C32             0.4316458499       -9.4367771262       13.9619190480  MEMB      5               0.0000000000
       677        11  POPC      H2X             0.4061668581       -8.8584175915       14.9101656582  MEMB      5               0.0000000000
       678        11  POPC      H2Y            -0.5800037237       -9.6892155639       13.5783034983  MEMB      5               0.0000000000
       679        11  POPC      C23             5.8025097476       -8.8130128984       15.2226602060  MEMB      5               0.0000000000
       680        11  POPC      H3R             4.8482101668       -8.4474984703       15.6585874628  MEMB      5               0.0000000000
       681        11  POPC      H3S             5.6023404390       -9.2250748662       14.2105051501  MEMB      5               0.0000000000
       682        11  POPC      C24             6.7793306787       -7.6251583084       15.1113083257  MEMB      5               0.0000000000
       683        11  POPC      H4R             7.7371273482       -7.9888580338       14.6815761693  MEMB      5               0.0000000000
       684        11  POPC      H4S             7.0165944944       -7.2458769638       16.1282509398  MEMB      5               0.0000000000
       685        11  POPC      C25             6.1986541027       -6.4358079356       14.2633497234  MEMB      5               0.0000000000
       686        11  POPC      H5R             7.0829826123       -5.7705731900       14.1646269189  MEMB      5               0.0000000000
       687        11  POPC      H5S             5.4817784118       -5.8082313387       14.8348020521  MEMB      5               0.0000000000
       688        11  POPC      C26             5.7724195901       -6.8062979658       12.8604581849  MEMB      5               0.0000000000
       689        11  POPC      H6R             4.8928420866       -7.4839572287       12.8984385625  MEMB      5               0.0000000000
       690        11  POPC      H6S             6.6859292202       -7.2486895892       12.4086721853  MEMB      5               0.0000000000
       691        11  POPC      C27             5.4435724703       -5.5609367454       12.0794853975  MEMB      5               0.0000000000
       692        11  POPC      H7R             5.6132082625       -4.6337820065       12.6676427331  MEMB      5               0.0000000000
       693        11  POPC      H7S             4.3399995291       -5.6492593258       11.9864967640  MEMB      5               0.0000000000
       694        11  POPC      C28             6.0956783836       -5.5789740626       10.6168112180  MEMB      5               0.0000000000
       695        11  POPC      H8R             5.8812557000       -6.6008056898       10.2370683458  MEMB      5               0.0000000000
       696        11  POPC      H8S             7.1808739267       -5.5198756367       10.8474164692  MEMB      5               0.0000000000
       697        11  POPC      C29             5.5280555262       -4.4932582241        9.6835752193  MEMB      5               0.0000000000
       698        11  POPC      H91             5.9391691045       -3.4748179948        9.6222170593  MEMB      5               0.0000000000
       699        11  POPC      C210            4.4217358754       -4.6956201943        8.8495285175  MEMB      5               0.0000000000
       700        11  POPC      H101            4.2042255608       -3.8167829795        8.2247610436  MEMB      5               0.0000000000
       701        11  POPC      C211            3.6424505866       -6.0141097510        8.7350030347  MEMB      5               0.0000000000
       702        11  POPC      H11R            2.5557432477       -5.7906091111        8.7936191836  MEMB      5               0.0000000000
       703        11  POPC      H11S            3.8780644783       -6.5747604708        9.6647754174  MEMB      5               0.0000000000
       704        11  POPC      C212            3.9058815882       -6.8442706355        7.4383806868  MEMB      5               0.0000000000
       705        11  POPC      H12R            3.7993782749       -7.8466172519        7.9055843160  MEMB      5               0.0000000000
       706        11  POPC      H12S            4.9159601630       -6.6128484871        7.0377484196  MEMB      5               0.0000000000
       707        11  POPC      C213            2.8870623661       -6.5482733410        6.4117006228  MEMB      5               0.0000000000
       708        11  POPC      H13R            1.8702771799       -6.2649302006        6.7583778139  MEMB      5               0.0000000000
       709        11  POPC      H13S            2.7412702019       -7.5046239453        5.8653868406  MEMB      5               0.0000000000
       710        11  POPC      C214            3.0879976893       -5.3312805050        5.5899312802  MEMB      5               0.0000000000
       711        11  POPC      H14R            4.1454722159       -5.0267630926        5.7426980207  MEMB      5               0.0000000000
       712        11  POPC      H14S            2.4367269779       -4.4953741474        5.9237402542  MEMB      5               0.0000000000
       713        11  POPC      C215            2.8230187357       -5.4395622446        4.0912774386  MEMB      5               0.0000000000
       714        11  POPC      H15R            2.6566348554       -4.4027352165        3.7284732854  MEMB      5               0.0000000000
       715        11  POPC      H15S            1.9604090397       -6.1115999125        3.8948319508  MEMB      5               0.0000000000
       716        11  POPC      C216            4.0042434690       -5.8104037593        3.2148906877  MEMB      5               0.0000000000
       717        11  POPC      H16R            4.9681924765       -5.4804284286        3.6578805179  MEMB      5               0.0000000000
       718        11  POPC      H16S            3.9151736745       -5.0916178107        2.3724335340  MEMB      5               0.0000000000
       719        11  POPC      C217            4.2097923414       -7.1574909677        2.5997954453  MEMB      5               0.0000000000
       720        11  POPC      H17R            3.1854840145       -7.4995272635        2.3387886615  MEMB      5               0.0000000000
       721        11  POPC      H17S            4.5897724066       -7.8780269733        3.3552851076  MEMB      5               0.0000000000
       722        11  POPC      C218            5.0451103127       -7.1598706229        1.3835028843  MEMB      5               0.0000000000
       723        11  POPC      H18R            5.8881106707       -6.4931697412        1.6648946923  MEMB      5               0.0000000000
       724        11  POPC      H18S            4.6260240164       -6.6130948461        0.5118820978  MEMB      5               0.0000000000
       725        11  POPC      H18T            5.4292030521       -8.1156745474        0.9672899509  MEMB      5               0.0000000000
       726        11  POPC      C33             1.3007298945       -8.7615563101       12.8966293064  MEMB      5               0.0000000000
       727        11  POPC      H3X             1.1754121887       -9.2270896332       11.8956819760  MEMB      5               0.0000000000
       728        11  POPC      H3Y             2.3525163120       -8.8172993498       13.2501247184  MEMB      5               0.0000000000
       729        11  POPC      C34             0.9516611724       -7.2508906218       12.8031309174  MEMB      5               0.0000000000
       730        11  POPC      H4X             1.5057453471       -6.7325412682       11.9915729580  MEMB      5               0.0000000000
       731        11  POPC      H4Y             1.2808545116       -6.7208932630       13.7223998937  MEMB      5               0.0000000000
       732        11  POPC      C35            -0.5533392215       -6.9666494293       12.6441972524  MEMB      5               0.0000000000
       733        11  POPC      H5X            -0.7737638508       -5.8937526470       12.4581138719  MEMB      5               0.0000000000
       734        11  POPC      H5Y            -1.0471505141       -7.3467160191       13.5639913220  MEMB      5               0.0000000000
       735        11  POPC      C36            -1.1928155883       -7.6878173537       11.3969240332  MEMB      5               0.0000000000
       736        11  POPC      H6X            -2.2942690709       -7.5426087192       11.4028586702  MEMB      5               0.0000000000
       737        11  POPC      H6Y            -1.0176605237       -8.7846919853       11.4194618402  MEMB      5               0.0000000000
       738        11  POPC      C37            -0.6040744341       -7.1308145705       10.0271111070  MEMB      5               0.0000000000
       739        11  POPC      H7X            -0.0428139049       -6.1895146232       10.2094897971  MEMB      5               0.0000000000
       740        11  POPC      H7Y            -1.4529011854       -6.7968770084        9.3928401726  MEMB      5               0.0000000000
       741        11  POPC      C38             0.1688616132       -8.1775319767        9.2435525971  MEMB      5               0.0000000000
       742        11  POPC      H8X             0.7544984856       -8.7787202418        9.9715104912  MEMB      5               0.0000000000
       743        11  POPC      H8Y             0.8569190844       -7.6222359783        8.5708378951  MEMB      5               0.0000000000
       744        11  POPC      C39            -0.7778490606       -9.0791072347        8.4715674485  MEMB      5               0.0000000000
       745        11  POPC      H9X            -1.3829508136       -8.3905202351        7.8438568575  MEMB      5               0.0000000000
       746        11  POPC      H9Y            -1.4750238760       -9.5798200798        9.1769430909  MEMB      5               0.0000000000
       747        11  POPC      C310           -0.1198808386      -10.2075589323        7.6355456682  MEMB      5               0.0000000000
       748        11  POPC      H10X           -0.9485896376      -10.4976445023        6.9548012660  MEMB      5               0.0000000000
       749        11  POPC      H10Y            0.0530215036      -11.0764224862        8.3059944882  MEMB      5               0.0000000000
       750        11  POPC      C311            1.0302871107       -9.7162040954        6.7052862380  MEMB      5               0.0000000000
       751        11  POPC      H11X            1.9254855647       -9.5350944489        7.3378520311  MEMB      5               0.0000000000
       752        11  POPC      H11Y            0.6919215217       -8.8322933732        6.1234517487  MEMB      5               0.0000000000
       753        11  POPC      C312            1.6193796532      -10.7150153767        5.7329847676  MEMB      5               0.0000000000
       754        11  POPC      H12X            0.8053575618      -11.0557306334        5.0580020140  MEMB      5               0.0000000000
       755        11  POPC      H12Y            2.0416875613      -11.5947918512        6.2639939084  MEMB      5               0.0000000000
       756        11  POPC      C313            2.7217391162      -10.1118514246        4.7400738685  MEMB      5               0.0000000000
       757        11  POPC      H13X            3.6886902183       -9.8641392213        5.2278905511  MEMB      5               0.0000000000
       758        11  POPC      H13Y            2.3151267573       -9.0980950483        4.5368858235  MEMB      5               0.0000000000
       759        11  POPC      C314            2.6566129931      -10.6871704727        3.3953907600  MEMB      5               0.0000000000
       760        11  POPC      H14X            3.2138815298      -10.0158491778        2.7075684501  MEMB      5               0.0000000000
       761        11  POPC      H14Y            1.5796207184      -10.6583932088        3.1241331726  MEMB      5               0.0000000000
       762        11  POPC      C315            2.9471144851      -12.2204716372        3.1799614336  MEMB      5               0.0000000000
       763        11  POPC      H15X            2.6088983341      -12.5197213299        2.1648854553  MEMB      5               0.0000000000
       764        11  POPC      H15Y            2.3419391048      -12.7633043900        3.9372041721  MEMB      5               0.0000000000
       765        11  POPC      C316            4.4308619810      -12.4989629333        3.3060621604  MEMB      5               0.0000000000
       766        11  POPC      H16X            4.7746746394      -13.5355926869        3.1023157293  MEMB      5               0.0000000000
       767        11  POPC      H16Y            4.9907944233      -12.2822684386        4.2408567634  MEMB      5               0.0000000000
       768        11  POPC      H16Z            4.7988790011      -11.8398153535        2.4909500992  MEMB      5               0.0000000000
       769        12  POPC      N              -2.1112602749        9.2323963720       18.4945110627  MEMB      6               0.0000000000
       770        12  POPC      C12            -2.8792153970       10.0257104228       19.5327336898  MEMB      6               0.0000000000
       771        12  POPC      H12A           -2.1917139616       10.7881172360       19.8681105826  MEMB      6               0.0000000000
       772        12  POPC      H12B           -3.3100206792        9.4503633436       20.3388245244  MEMB      6               0.0000000000
       773        12  POPC      C13            -1.6708768227       10.1958181359       17.4246078759  MEMB      6               0.0000000000
       774        12  POPC      H13A           -1.2167671184       11.0387422492       17.9242711320  MEMB      6               0.0000000000
       775        12  POPC      H13B           -0.8943701758        9.9022743006       16.7337610950  MEMB      6               0.0000000000
       776        12  POPC      H13C           -2.5747149070       10.3638941656       16.8578388261  MEMB      6               0.0000000000
       777        12  POPC      C14            -0.8128484133        8.6511878777       19.0006146220  MEMB      6               0.0000000000
       778        12  POPC      H14A           -0.3094453832        8.1424170848       18.1918270362  MEMB      6               0.0000000000
       779        12  POPC      H14B           -0.1514987036        9.4430690664       19.3198964536  MEMB      6               0.0000000000
       780        12  POPC      H14C           -1.0250656530        7.9304862190       19.7764707946  MEMB      6               0.0000000000
       781        12  POPC      C15            -3.0321260073        8.2136290097       17.9885776387  MEMB      6               0.0000000000
       782        12  POPC      H15A           -3.4574812647        7.7486878316       18.8656765491  MEMB      6               0.0000000000
       783        12  POPC      H15B           -2.6103451460        7.4556168629       17.3452126073  MEMB      6               0.0000000000
       784        12  POPC      H15C           -3.8669934130        8.7096226115       17.5159392230  MEMB      6               0.0000000000
       785        12  POPC      C11            -4.1669909544       10.8377941186       19.0179293357  MEMB      6               0.0000000000
       786        12  POPC      H11A           -5.0609155547       10.2151312554       19.2358989925  MEMB      6               0.0000000000
       787        12  POPC      H11B           -4.2352090687       10.9698016345       17.9169109825  MEMB      6               0.0000000000
       788        12  POPC      P              -3.3854699130       13.3136490938       19.5792723813  MEMB      6               0.0000000000
       789        12  POPC      O13            -1.9830690094       12.8799160082       19.4616073031  MEMB      6               0.0000000000
       790        12  POPC      O14            -3.7045428216       14.2463397072       20.6361709903  MEMB      6               0.0000000000
       791        12  POPC      O12            -4.3623679851       12.0412463722       19.7073525747  MEMB      6               0.0000000000
       792        12  POPC      O11            -3.7749399700       14.0002151854       18.1566224849  MEMB      6               0.0000000000
       793        12  POPC      C1             -5.0157474697       14.6345074678       17.9127760415  MEMB      6               0.0000000000
       794        12  POPC      HA             -4.9846054815       15.6384290992       18.3876365096  MEMB      6               0.0000000000
       795        12  POPC      HB             -5.8834091971       14.1118358595       18.3691733135  MEMB      6               0.0000000000
       796        12  POPC      C2             -5.2064256558       14.8634779754       16.3735422792  MEMB      6               0.0000000000
       797        12  POPC      HS             -6.2337590668       15.2612898907       16.2298312670  MEMB      6               0.0000000000
       798        12  POPC      O21            -5.0577535579       13.6496771193       15.6516768698  MEMB      6               0.0000000000
       799        12  POPC      C21            -5.6792637112       12.5325129202       15.9582306721  MEMB      6               0.0000000000
       800        12  POPC      O22            -6.6136713597       12.3909202527       16.7119844148  MEMB      6               0.0000000000
       801        12  POPC      C22            -5.0242692144       11.3850849347       15.1940424333  MEMB      6               0.0000000000
       802        12  POPC      H2R            -5.8536655421       10.6463053002       15.1689940149  MEMB      6               0.0000000000
       803        12  POPC      H2S            -4.1485251120       10.9716201257       15.7385056344  MEMB      6               0.0000000000
       804        12  POPC      C3             -4.1922468274       15.8744461569       15.8033913767  MEMB      6               0.0000000000
       805        12  POPC      HX             -4.1081104796       16.8607173757       16.3078829018  MEMB      6               0.0000000000
       806        12  POPC      HY             -4.5644324623       16.0938555552       14.7798392294  MEMB      6               0.0000000000
       807        12  POPC      O31            -2.8840846818       15.3581759571       15.8281570425  MEMB      6               0.0000000000
       808        12  POPC      C31            -2.3038991709       15.0488664059       14.6769832248  MEMB      6               0.0000000000
       809        12  POPC      O32            -2.6750314712       15.4500626255       13.6021520715  MEMB      6               0.0000000000
       810        12  POPC      C32            -1.0839227960       14.1218339304       15.0068709010  MEMB      6               0.0000000000
       811        12  POPC      H2X            -1.4365742894       13.0683336728       14.9971192242  MEMB      6               0.0000000000
       812        12  POPC      H2Y            -0.7011799434       14.3904064976       16.0146893775  MEMB      6               0.0000000000
       813        12  POPC      C23            -4.5785727350       11.8733406811       13.8622369927  MEMB      6               0.0000000000
       814        12  POPC      H3R            -3.6012033335       12.3545599910       14.0801778202  MEMB      6               0.0000000000
       815        12  POPC      H3S            -5.3259245752       12.4793822235       13.3068098549  MEMB      6               0.0000000000
       816        12  POPC      C24            -4.3008047317       10.7017023241       12.8240380959  MEMB      6               0.0000000000
       817        12  POPC      H4R            -5.1380909822       10.3063925429       12.2100322451  MEMB      6               0.0000000000
       818        12  POPC      H4S            -4.0400577602        9.9149437006       13.5638642895  MEMB      6               0.0000000000
       819        12  POPC      C25            -3.1570568673       10.9235751067       11.8542091794  MEMB      6               0.0000000000
       820        12  POPC      H5R            -2.2844879537       11.2652536041       12.4510340831  MEMB      6               0.0000000000
       821        12  POPC      H5S            -3.3390388342       11.6973310436       11.0779969202  MEMB      6               0.0000000000
       822        12  POPC      C26            -2.8160811416        9.5724988935       11.2152126415  MEMB      6               0.0000000000
       823        12  POPC      H6R            -3.6446216471        9.1820525239       10.5864092069  MEMB      6               0.0000000000
       824        12  POPC      H6S            -2.6756956672        8.6898694925       11.8751957637  MEMB      6               0.0000000000
       825        12  POPC      C27            -1.6255550398        9.5689884289       10.1706276264  MEMB      6               0.0000000000
       826        12  POPC      H7R            -0.7729866243        9.0785228318       10.6872438901  MEMB      6               0.0000000000
       827        12  POPC      H7S            -1.3545665969       10.6266245410        9.9649775450  MEMB      6               0.0000000000
       828        12  POPC      C28            -1.8948849933        8.8787085835        8.7728094571  MEMB      6               0.0000000000
       829        12  POPC      H8R            -2.7757410525        9.3655561493        8.3022843440  MEMB      6               0.0000000000
       830        12  POPC      H8S            -2.2950492024        7.8733146925        9.0245484083  MEMB      6               0.0000000000
       831        12  POPC      C29            -0.6092862951        8.9681127561        7.8804880221  MEMB      6               0.0000000000
       832        12  POPC      H91            -0.1252494942        9.9554169815        7.9111285051  MEMB      6               0.0000000000
       833        12  POPC      C210           -0.1645634955        8.0672672786        7.0477512340  MEMB      6               0.0000000000
       834        12  POPC      H101            0.7130326078        8.3323810764        6.4398538363  MEMB      6               0.0000000000
       835        12  POPC      C211           -0.8202221157        6.7649075461        6.6868126299  MEMB      6               0.0000000000
       836        12  POPC      H11R           -1.8474275495        6.8116458646        7.1075095604  MEMB      6               0.0000000000
       837        12  POPC      H11S           -0.1858907259        5.9662184618        7.1273133260  MEMB      6               0.0000000000
       838        12  POPC      C212           -1.0547504259        6.5204204347        5.1710990604  MEMB      6               0.0000000000
       839        12  POPC      H12R           -0.9991828152        5.4291499203        4.9701982350  MEMB      6               0.0000000000
       840        12  POPC      H12S           -0.0732153895        6.7552156926        4.7065765375  MEMB      6               0.0000000000
       841        12  POPC      C213           -2.2816540707        7.2533764660        4.5804270789  MEMB      6               0.0000000000
       842        12  POPC      H13R           -2.2538583576        8.3364529846        4.8263821991  MEMB      6               0.0000000000
       843        12  POPC      H13S           -3.1750403178        6.7169549692        4.9656981063  MEMB      6               0.0000000000
       844        12  POPC      C214           -2.3561718143        7.1625814197        3.0786562388  MEMB      6               0.0000000000
       845        12  POPC      H14R           -2.2095910388        6.0842394299        2.8550204783  MEMB      6               0.0000000000
       846        12  POPC      H14S           -1.5351486801        7.6460518274        2.5072562446  MEMB      6               0.0000000000
       847        12  POPC      C215           -3.7053021582        7.5601077748        2.5661759249  MEMB      6               0.0000000000
       848        12  POPC      H15R           -3.9035739658        8.5884743506        2.9369470380  MEMB      6               0.0000000000
       849        12  POPC      H15S           -4.3764946081        6.7508421666        2.9252184146  MEMB      6               0.0000000000
       850        12  POPC      C216           -3.8179235608        7.6927874409        1.0716438369  MEMB      6               0.0000000000
       851        12  POPC      H16R           -4.8637980677        7.4023068620        0.8348133994  MEMB      6               0.0000000000
       852        12  POPC      H16S           -3.1542817378        6.9285080583        0.6136282452  MEMB      6               0.0000000000
       853        12  POPC      C217           -3.6807893081        9.0723530508        0.4833499551  MEMB      6               0.0000000000
       854        12  POPC      H17R           -4.5242800897        9.6408246617        0.9302092866  MEMB      6               0.0000000000
       855        12  POPC      H17S           -3.9469273540        8.9371747347       -0.5867992070  MEMB      6               0.0000000000
       856        12  POPC      C218           -2.3562882356        9.8175067407        0.5111335629  MEMB      6               0.0000000000
       857        12  POPC      H18R           -2.3805762368       10.8045309799        0.0017082391  MEMB      6               0.0000000000
       858        12  POPC      H18S           -1.6070354722        9.2726725147       -0.1021324509  MEMB      6               0.0000000000
       859        12  POPC      H18T           -1.9156795693        9.9112079160        1.5267157818  MEMB      6               0.0000000000
       860        12  POPC      C33             0.0253743336       14.3823141952       14.0362597418  MEMB      6               0.0000000000
       861        12  POPC      H3X             0.9770702057       14.1166044900       14.5441912187  MEMB      6               0.0000000000
       862        12  POPC      H3Y             0.0999109946       15.4780600513       13.8686103270  MEMB      6               0.0000000000
       863        12  POPC      C34             0.1019922671       13.6273728168       12.6518609937  MEMB      6               0.0000000000
       864        12  POPC      H4X             0.0225838855       12.5251903382       12.7667912348  MEMB      6               0.0000000000
       865        12  POPC      H4Y             1.1092113342       13.7713040731       12.2056379631  MEMB      6               0.0000000000
       866        12  POPC      C35            -0.7758715278       14.3010278353       11.5972911884  MEMB      6               0.0000000000
       867        12  POPC      H5X            -0.6850600596       15.4066969240       11.6570414260  MEMB      6               0.0000000000
       868        12  POPC      H5Y            -1.7963645172       13.9574290423       11.8708874293  MEMB      6               0.0000000000
       869        12  POPC      C36            -0.4079707298       13.9151114464       10.1497718535  MEMB      6               0.0000000000
       870        12  POPC      H6X            -0.4656417437       12.8081561546       10.0746386680  MEMB      6               0.0000000000
       871        12  POPC      H6Y             0.6450832059       14.2630942230       10.0841502674  MEMB      6               0.0000000000
       872        12  POPC      C37            -1.2253448382       14.6298237837        9.0934357636  MEMB      6               0.0000000000
       873        12  POPC      H7X            -0.8622599243       14.4635776794        8.0566845425  MEMB      6               0.0000000000
       874        12  POPC      H7Y            -1.3593679056       15.7284735146        9.1900153717  MEMB      6               0.0000000000
       875        12  POPC      C38            -2.6765280412       14.0118565907        9.1891540427  MEMB      6               0.0000000000
       876        12  POPC      H8X            -3.3122285611       14.3378223708       10.0400085270  MEMB      6               0.0000000000
       877        12  POPC      H8Y            -2.5841850776       12.9059465188        9.1366532146  MEMB      6               0.0000000000
       878        12  POPC      C39            -3.5195611882       14.2580301659        7.9617811051  MEMB      6               0.0000000000
       879        12  POPC      H9X            -2.9247964648       13.9946335340        7.0611156988  MEMB      6               0.0000000000
       880        12  POPC      H9Y            -3.7615501415       15.3365619195        7.8498356214  MEMB      6               0.0000000000
       881        12  POPC      C310           -4.7843482369       13.4265149173        7.7598124509  MEMB      6               0.0000000000
       882        12  POPC      H10X           -5.3765252230       13.7650650060        8.6367570556  MEMB      6               0.0000000000
       883        12  POPC      H10Y           -4.4429918266       12.3692564119        7.7586246917  MEMB      6               0.0000000000
       884        12  POPC      C311           -5.6155462137       13.7914495957        6.5278636489  MEMB      6               0.0000000000
       885        12  POPC      H11X           -5.5989510242       14.8887371411        6.3546421585  MEMB      6               0.0000000000
       886        12  POPC      H11Y           -6.6881794425       13.5331494243        6.6584762640  MEMB      6               0.0000000000
       887        12  POPC      C312           -5.2252946593       12.9998517121        5.2432356348  MEMB      6               0.0000000000
       888        12  POPC      H12X           -5.6908476347       11.9975114486        5.3567939085  MEMB      6               0.0000000000
       889        12  POPC      H12Y           -4.1233378250       12.9010756633        5.3445057003  MEMB      6               0.0000000000
       890        12  POPC      C313           -5.5116261724       13.7639216566        3.9512488614  MEMB      6               0.0000000000
       891        12  POPC      H13X           -5.1219004379       14.8042889870        3.9428428695  MEMB      6               0.0000000000
       892        12  POPC      H13Y           -6.6001076421       13.7127796204        3.7346536333  MEMB      6               0.0000000000
       893        12  POPC      C314           -4.6074910040       13.3165591417        2.7903367821  MEMB      6               0.0000000000
       894        12  POPC      H14X           -4.6996140159       12.2093960098        2.7854215533  MEMB      6               0.0000000000
       895        12  POPC      H14Y           -3.5801997128       13.6863096016        2.9959543931  MEMB      6               0.0000000000
       896        12  POPC      C315           -4.9905463044       13.9023445608        1.4352129225  MEMB      6               0.0000000000
       897        12  POPC      H15X           -5.0282843215       15.0082613279        1.5344325884  MEMB      6               0.0000000000
       898        12  POPC      H15Y           -5.9925876562       13.5250553657        1.1387550930  MEMB      6               0.0000000000
       899        12  POPC      C316           -4.1784778187       13.4392766146        0.2155792936  MEMB      6               0.0000000000
       900        12  POPC      H16X           -4.1168490594       12.3314212820        0.1591888620  MEMB      6               0.0000000000
       901        12  POPC      H16Y           -3.1006666171       13.7022757986        0.2745316171  MEMB      6               0.0000000000
       902        12  POPC      H16Z           -4.4748405761       13.9267017668       -0.7377875690  MEMB      6               0.0000000000
       903        13  POPS      N              10.7505705757        4.6413162474       20.5281176726  MEMB      7               0.0000000000
       904        13  POPS      HN1            10.1068662634        3.8998886490       20.8709438669  MEMB      7               0.0000000000
       905        13  POPS      HN2            11.6098819585        4.5875632335       21.1114654075  MEMB      7               0.0000000000
       906        13  POPS      HN3            10.2360240055        5.5373411219       20.6463597713  MEMB      7               0.0000000000
       907        13  POPS      C12            11.1038101223        4.2729900060       19.1074448540  MEMB      7               0.0000000000
       908        13  POPS      H12A           10.1628382689        4.3386923393       18.5814648060  MEMB      7               0.0000000000
       909        13  POPS      C13            11.7299979815        2.7983585376       18.9225900562  MEMB      7               0.0000000000
       910        13  POPS      O13A           11.9258752716        2.1257012057       19.9726514254  MEMB      7               0.0000000000
       911        13  POPS      O13B           12.0062190059        2.3708201051       17.7587438307  MEMB      7               0.0000000000
       912        13  POPS      C11            12.1409601136        5.2925153267       18.6228584852  MEMB      7               0.0000000000
       913        13  POPS      H11A           11.8135334214        6.3423051084       18.4645732964  MEMB      7               0.0000000000
       914        13  POPS      H11B           12.4348038584        4.9402781804       17.6109761701  MEMB      7               0.0000000000
       915        13  POPS      P              14.6439035402        5.8106657183       18.8239191343  MEMB      7               0.0000000000
       916        13  POPS      O13            15.1513972414        4.9143161834       17.8042806599  MEMB      7               0.0000000000
       917        13  POPS      O14            15.6366852747        6.1939651232       19.8576771931  MEMB      7               0.0000000000
       918        13  POPS      O12            13.3098119731        5.2203054109       19.4705153133  MEMB      7               0.0000000000
       919        13  POPS      O11            14.1063662020        7.1225235609       18.1312013517  MEMB      7               0.0000000000
       920        13  POPS      C1             15.0953359726        7.8286123815       17.2457317766  MEMB      7               0.0000000000
       921        13  POPS      HA             15.9253814100        7.2303721724       16.8127720731  MEMB      7               0.0000000000
       922        13  POPS      HB             15.5151307977        8.7514333177       17.7001486477  MEMB      7               0.0000000000
       923        13  POPS      C2             14.2947439035        8.5188043010       16.1050084003  MEMB      7               0.0000000000
       924        13  POPS      HS             13.5696301787        9.2932846822       16.4347221243  MEMB      7               0.0000000000
       925        13  POPS      O21            13.4957283647        7.4191239714       15.5855018120  MEMB      7               0.0000000000
       926        13  POPS      C21            12.3837938513        7.6004889993       14.9923137626  MEMB      7               0.0000000000
       927        13  POPS      O22            11.8029987012        8.6800456100       14.7826032727  MEMB      7               0.0000000000
       928        13  POPS      C22            11.8682164020        6.2632262463       14.4336237773  MEMB      7               0.0000000000
       929        13  POPS      H2R            11.1481937684        5.7516043162       15.1075167243  MEMB      7               0.0000000000
       930        13  POPS      H2S            12.7064135009        5.5885690477       14.1568849933  MEMB      7               0.0000000000
       931        13  POPS      C3             15.1932746331        9.0262382488       15.1003066271  MEMB      7               0.0000000000
       932        13  POPS      HX             15.9499644152        9.6313531295       15.6439774161  MEMB      7               0.0000000000
       933        13  POPS      HY             14.6863126898        9.8460879261       14.5478969351  MEMB      7               0.0000000000
       934        13  POPS      O31            15.9616555515        8.0616144840       14.3078435419  MEMB      7               0.0000000000
       935        13  POPS      C31            15.5358557051        7.9139642408       13.0083896238  MEMB      7               0.0000000000
       936        13  POPS      O32            14.7038843405        8.5963668669       12.4739306603  MEMB      7               0.0000000000
       937        13  POPS      C32            16.3840033377        6.7307559666       12.3667115661  MEMB      7               0.0000000000
       938        13  POPS      H2X            17.3251653852        6.6524618404       12.9518650704  MEMB      7               0.0000000000
       939        13  POPS      H2Y            16.7621419104        6.9951922136       11.3560656990  MEMB      7               0.0000000000
       940        13  POPS      C23            11.1130696608        6.4404435798       13.1766049871  MEMB      7               0.0000000000
       941        13  POPS      H3R            11.7173651548        6.8381432896       12.3334068743  MEMB      7               0.0000000000
       942        13  POPS      H3S            10.2937436242        7.1881480597       13.2395636027  MEMB      7               0.0000000000
       943        13  POPS      C24            10.5531261668        5.1138256755       12.6036706632  MEMB      7               0.0000000000
       944        13  POPS      H4R             9.8336561130        4.7608523933       13.3731468415  MEMB      7               0.0000000000
       945        13  POPS      H4S            11.4241043920        4.4253006016       12.6443027280  MEMB      7               0.0000000000
       946        13  POPS      C25             9.9158838579        4.9105849905       11.1939130368  MEMB      7               0.0000000000
       947        13  POPS      H5R             9.0134282636        5.5367674373       11.3606177422  MEMB      7               0.0000000000
       948        13  POPS      H5S             9.6132343670        3.8583457877       11.0054540909  MEMB      7               0.0000000000
       949        13  POPS      C26            10.7504396690        5.5293033924       10.0820210598  MEMB      7               0.0000000000
       950        13  POPS      H6R            11.0545400545        6.5736372972       10.3083187106  MEMB      7               0.0000000000
       951        13  POPS      H6S            10.1366065743        5.5399814979        9.1560531544  MEMB      7               0.0000000000
       952        13  POPS      C27            12.0382332720        4.8879271798        9.6444914721  MEMB      7               0.0000000000
       953        13  POPS      H7R            11.8649075030        3.8980544064        9.1707501656  MEMB      7               0.0000000000
       954        13  POPS      H7S            12.7630659126        4.8255552106       10.4841630558  MEMB      7               0.0000000000
       955        13  POPS      C28            12.8692319078        5.7691525789        8.5527552340  MEMB      7               0.0000000000
       956        13  POPS      H8R            12.1900787461        5.7471789078        7.6737847164  MEMB      7               0.0000000000
       957        13  POPS      H8S            13.7725225546        5.1974097808        8.2502700643  MEMB      7               0.0000000000
       958        13  POPS      C29            13.2984827659        7.0972063721        9.0994052955  MEMB      7               0.0000000000
       959        13  POPS      H91            14.0556115115        7.0872661009        9.8973134550  MEMB      7               0.0000000000
       960        13  POPS      C210           12.9857599106        8.3260674878        8.5864983386  MEMB      7               0.0000000000
       961        13  POPS      H101           13.3900653611        9.2037867031        9.1119943140  MEMB      7               0.0000000000
       962        13  POPS      C211           12.0516547434        8.5166200725        7.4138326955  MEMB      7               0.0000000000
       963        13  POPS      H11R           11.8522656205        9.6071014209        7.3402447141  MEMB      7               0.0000000000
       964        13  POPS      H11S           11.1143268427        7.9216468073        7.4555964615  MEMB      7               0.0000000000
       965        13  POPS      C212           12.6797784022        8.1162674406        6.0750394266  MEMB      7               0.0000000000
       966        13  POPS      H12R           12.6192223304        7.0172216022        5.9242016456  MEMB      7               0.0000000000
       967        13  POPS      H12S           13.7489075330        8.4181725636        6.0633195220  MEMB      7               0.0000000000
       968        13  POPS      C213           12.0908505178        8.8675515599        4.9543925856  MEMB      7               0.0000000000
       969        13  POPS      H13R           12.3975437779        9.9309892365        5.0511435004  MEMB      7               0.0000000000
       970        13  POPS      H13S           10.9844613226        8.7892059499        4.8904712703  MEMB      7               0.0000000000
       971        13  POPS      C214           12.5610321902        8.3964999223        3.5658657810  MEMB      7               0.0000000000
       972        13  POPS      H14R           12.1534025309        7.3790520648        3.3843197395  MEMB      7               0.0000000000
       973        13  POPS      H14S           13.6712571607        8.4055539217        3.6063535560  MEMB      7               0.0000000000
       974        13  POPS      C215           12.2728294069        9.3175752875        2.3892563048  MEMB      7               0.0000000000
       975        13  POPS      H15R           12.6513997277        8.6745939744        1.5661030951  MEMB      7               0.0000000000
       976        13  POPS      H15S           12.8617444936       10.2588002726        2.4292056499  MEMB      7               0.0000000000
       977        13  POPS      C216           10.8566976134        9.7820400718        2.0975560654  MEMB      7               0.0000000000
       978        13  POPS      H16R           10.9011800933       10.6247831104        1.3749725001  MEMB      7               0.0000000000
       979        13  POPS      H16S           10.3661612698       10.2438939491        2.9809503490  MEMB      7               0.0000000000
       980        13  POPS      C217            9.8601980602        8.7676156823        1.4643595812  MEMB      7               0.0000000000
       981        13  POPS      H17R           10.3928530211        8.3108647190        0.6029778458  MEMB      7               0.0000000000
       982        13  POPS      H17S            9.0737985027        9.3983418275        0.9973680835  MEMB      7               0.0000000000
       983        13  POPS      C218            9.1726846649        7.7446786937        2.4023999893  MEMB      7               0.0000000000
       984        13  POPS      H18R            9.8817062960        6.9368469312        2.6835010760  MEMB      7               0.0000000000
       985        13  POPS      H18S            8.2862185047        7.4135720720        1.8202772133  MEMB      7               0.0000000000
       986        13  POPS      H18T            8.8775158488        8.2167165095        3.3638451306  MEMB      7               0.0000000000
       987        13  POPS      C33            15.8143693704        5.3297756064       12.1724863275  MEMB      7               0.0000000000
       988        13  POPS      H3X            16.3929012973        4.7569987264       11.4164780578  MEMB      7               0.0000000000
       989        13  POPS      H3Y            14.7778624420        5.5456035400       11.8357487497  MEMB      7               0.0000000000
       990        13  POPS      C34            15.8675209684        4.5076618762       13.4702089236  MEMB      7               0.0000000000
       991        13  POPS      H4X            15.1922430682        4.9887091293       14.2097453530  MEMB      7               0.0000000000
       992        13  POPS      H4Y            16.9241376424        4.4725885879       13.8117522406  MEMB      7               0.0000000000
       993        13  POPS      C35            15.3414900901        3.0319328598       13.3152796263  MEMB      7               0.0000000000
       994        13  POPS      H5X            15.5404110816        2.4789850332       14.2581475842  MEMB      7               0.0000000000
       995        13  POPS      H5Y            16.0859515429        2.6708718844       12.5738401021  MEMB      7               0.0000000000
       996        13  POPS      C36            13.9003037696        3.0005571606       12.9388214189  MEMB      7               0.0000000000
       997        13  POPS      H6X            13.7216186975        3.6129077063       12.0291958308  MEMB      7               0.0000000000
       998        13  POPS      H6Y            13.3228271738        3.4365564083       13.7818793495  MEMB      7               0.0000000000
       999        13  POPS      C37            13.3736934901        1.5672695293       12.7388425149  MEMB      7               0.0000000000
      1000        13  POPS      H7X            12.2639838032        1.6030204998       12.7786834436  MEMB      7               0.0000000000
      1001        13  POPS      H7Y            13.6475137255        0.9116743805       13.5929728613  MEMB      7               0.0000000000
      1002        13  POPS      C38            13.8385955781        0.8385144301       11.4737799273  MEMB      7               0.0000000000
      1003        13  POPS      H8X            13.6768888268       -0.2567405453       11.3811033859  MEMB      7               0.0000000000
      1004        13  POPS      H8Y            14.9384233563        0.9956747589       11.4741231500  MEMB      7               0.0000000000
      1005        13  POPS      C39            13.3303521179        1.5479928297       10.2058120082  MEMB      7               0.0000000000
      1006        13  POPS      H9X            13.6792771637        2.5866311348       10.0219558164  MEMB      7               0.0000000000
      1007        13  POPS      H9Y            12.2298492923        1.6249589028       10.3373057471  MEMB      7               0.0000000000
      1008        13  POPS      C310           13.7415000260        0.7996770671        8.8891898242  MEMB      7               0.0000000000
      1009        13  POPS      H10X           13.4159449924       -0.2625436128        8.8939179261  MEMB      7               0.0000000000
      1010        13  POPS      H10Y           14.8281325324        0.7676907828        8.6599999239  MEMB      7               0.0000000000
      1011        13  POPS      C311           13.2774020315        1.3654895899        7.4763790873  MEMB      7               0.0000000000
      1012        13  POPS      H11X           12.1963850304        1.6215060383        7.4629980739  MEMB      7               0.0000000000
      1013        13  POPS      H11Y           13.3628594743        0.6252482193        6.6523283412  MEMB      7               0.0000000000
      1014        13  POPS      C312           14.2437149674        2.4561885056        6.8838728792  MEMB      7               0.0000000000
      1015        13  POPS      H12X           15.3023822370        2.1215594735        6.8442791386  MEMB      7               0.0000000000
      1016        13  POPS      H12Y           14.2526379233        3.1673640445        7.7373781657  MEMB      7               0.0000000000
      1017        13  POPS      C313           13.9145888226        3.0576527135        5.5542461445  MEMB      7               0.0000000000
      1018        13  POPS      H13X           13.1269451560        3.8411653683        5.5610244544  MEMB      7               0.0000000000
      1019        13  POPS      H13Y           13.5416225016        2.2035174607        4.9495401701  MEMB      7               0.0000000000
      1020        13  POPS      C314           15.1101185739        3.5048353896        4.7864245953  MEMB      7               0.0000000000
      1021        13  POPS      H14X           15.9023052434        2.7312097209        4.8773312735  MEMB      7               0.0000000000
      1022        13  POPS      H14Y           15.4966214200        4.4837183951        5.1424087289  MEMB      7               0.0000000000
      1023        13  POPS      C315           14.7988118710        3.6096134496        3.2156303692  MEMB      7               0.0000000000
      1024        13  POPS      H15X           13.9103230408        4.2753026515        3.2576626930  MEMB      7               0.0000000000
      1025        13  POPS      H15Y           14.5135401513        2.5865360539        2.8896655926  MEMB      7               0.0000000000
      1026        13  POPS      C316           15.8947731427        4.1717642812        2.4481411221  MEMB      7               0.0000000000
      1027        13  POPS      H16X           16.1830254740        5.2105901993        2.7166034588  MEMB      7               0.0000000000
      1028        13  POPS      H16Y           15.5821124530        4.1245580732        1.3830888134  MEMB      7               0.0000000000
      1029        13  POPS      H16Z           16.7610452198        3.4761559180        2.4433224518  MEMB      7               0.0000000000
      1030        14  POPC      N             -15.8428403343        0.4449594240       18.9537207409  MEMB      8               0.0000000000
      1031        14  POPC      C12           -14.3618883840        0.4452093007       19.0724403783  MEMB      8               0.0000000000
      1032        14  POPC      H12A          -14.1027106570        0.7565981664       20.0735717127  MEMB      8               0.0000000000
      1033        14  POPC      H12B          -14.0060055286        1.1349860071       18.3214707063  MEMB      8               0.0000000000
      1034        14  POPC      C13           -16.1218685290        0.2282801998       17.4508207280  MEMB      8               0.0000000000
      1035        14  POPC      H13A          -17.1751193770        0.1432616033       17.2275845925  MEMB      8               0.0000000000
      1036        14  POPC      H13B          -15.8393387422        1.1567593526       16.9770029782  MEMB      8               0.0000000000
      1037        14  POPC      H13C          -15.6451230366       -0.6443820008       17.0294246174  MEMB      8               0.0000000000
      1038        14  POPC      C14           -16.5051827955       -0.6853669360       19.8208908968  MEMB      8               0.0000000000
      1039        14  POPC      H14A          -16.1640773114       -0.4592713231       20.8203545756  MEMB      8               0.0000000000
      1040        14  POPC      H14B          -17.5746475508       -0.5575355087       19.7414928040  MEMB      8               0.0000000000
      1041        14  POPC      H14C          -16.2129621059       -1.6981366940       19.5857216559  MEMB      8               0.0000000000
      1042        14  POPC      C15           -16.2555036492        1.8190432359       19.4699420803  MEMB      8               0.0000000000
      1043        14  POPC      H15A          -15.4556216687        2.5427444335       19.5232850184  MEMB      8               0.0000000000
      1044        14  POPC      H15B          -16.5236164597        1.6361273629       20.5000183684  MEMB      8               0.0000000000
      1045        14  POPC      H15C          -17.1319425374        2.1882371305       18.9581308098  MEMB      8               0.0000000000
      1046        14  POPC      C11           -13.5251430847       -0.7993973073       18.7612444419  MEMB      8               0.0000000000
      1047        14  POPC      H11A          -12.5354613499       -0.4498605608       19.1254903079  MEMB      8               0.0000000000
      1048        14  POPC      H11B          -13.4075328188       -1.2119066372       17.7363907961  MEMB      8               0.0000000000
      1049        14  POPC      P             -13.5527996673       -3.3673486602       19.1363410318  MEMB      8               0.0000000000
      1050        14  POPC      O13           -14.0460325665       -4.2943141599       20.1150139637  MEMB      8               0.0000000000
      1051        14  POPC      O14           -12.0981891625       -3.5222604277       18.8462703015  MEMB      8               0.0000000000
      1052        14  POPC      O12           -13.9084514880       -1.9024207235       19.6000259921  MEMB      8               0.0000000000
      1053        14  POPC      O11           -14.3547830231       -3.5127349166       17.7732894417  MEMB      8               0.0000000000
      1054        14  POPC      C1            -15.5667568555       -4.2546442310       17.7682810945  MEMB      8               0.0000000000
      1055        14  POPC      HA            -16.3930904502       -3.7164516187       18.2799864641  MEMB      8               0.0000000000
      1056        14  POPC      HB            -15.5644139537       -5.2649255250       18.2305006099  MEMB      8               0.0000000000
      1057        14  POPC      C2            -16.0685518702       -4.4646927105       16.3479337794  MEMB      8               0.0000000000
      1058        14  POPC      HS            -16.8574386575       -5.2469714585       16.3436482593  MEMB      8               0.0000000000
      1059        14  POPC      O21           -14.9322003419       -4.9473582554       15.7985770800  MEMB      8               0.0000000000
      1060        14  POPC      C21           -14.9778993992       -5.7324152931       14.7650512482  MEMB      8               0.0000000000
      1061        14  POPC      O22           -15.9552729161       -6.0629501353       14.1197283185  MEMB      8               0.0000000000
      1062        14  POPC      C22           -13.5473190839       -6.2069766372       14.4401271693  MEMB      8               0.0000000000
      1063        14  POPC      H2R           -13.1257404786       -6.7358442833       15.3215414218  MEMB      8               0.0000000000
      1064        14  POPC      H2S           -13.0011905328       -5.2808299584       14.1602754500  MEMB      8               0.0000000000
      1065        14  POPC      C3            -16.5670726470       -3.2154374845       15.5809822349  MEMB      8               0.0000000000
      1066        14  POPC      HX            -17.3120736930       -2.6724270088       16.2010097218  MEMB      8               0.0000000000
      1067        14  POPC      HY            -17.0140651185       -3.4403679395       14.5890521184  MEMB      8               0.0000000000
      1068        14  POPC      O31           -15.5046529270       -2.3019039730       15.4730973786  MEMB      8               0.0000000000
      1069        14  POPC      C31           -14.8250239336       -2.2905708898       14.3458675721  MEMB      8               0.0000000000
      1070        14  POPC      O32           -14.8856804483       -3.1409450672       13.4262524036  MEMB      8               0.0000000000
      1071        14  POPC      C32           -13.9720280834       -1.0873866660       14.1110850657  MEMB      8               0.0000000000
      1072        14  POPC      H2X           -13.2450270679       -1.1085918368       14.9509306403  MEMB      8               0.0000000000
      1073        14  POPC      H2Y           -14.6053870803       -0.1833211221       14.2369528630  MEMB      8               0.0000000000
      1074        14  POPC      C23           -13.5533605195       -7.1414370204       13.1704565314  MEMB      8               0.0000000000
      1075        14  POPC      H3R           -14.3785272755       -7.8784608434       13.2715326690  MEMB      8               0.0000000000
      1076        14  POPC      H3S           -12.6097350339       -7.7177327071       13.2789705006  MEMB      8               0.0000000000
      1077        14  POPC      C24           -13.5027257911       -6.4167727452       11.8292698594  MEMB      8               0.0000000000
      1078        14  POPC      H4R           -12.6458742226       -5.7109356154       11.7854479593  MEMB      8               0.0000000000
      1079        14  POPC      H4S           -14.4688052121       -5.8779599425       11.7258670391  MEMB      8               0.0000000000
      1080        14  POPC      C25           -13.3383941946       -7.4574602772       10.6748236251  MEMB      8               0.0000000000
      1081        14  POPC      H5R           -14.2917530925       -8.0110639840       10.5371611274  MEMB      8               0.0000000000
      1082        14  POPC      H5S           -12.5247187996       -8.1316579672       11.0179138255  MEMB      8               0.0000000000
      1083        14  POPC      C26           -12.9385794025       -6.7451759360        9.3681736933  MEMB      8               0.0000000000
      1084        14  POPC      H6R           -12.9383300056       -7.4891302777        8.5430353438  MEMB      8               0.0000000000
      1085        14  POPC      H6S           -11.9670925340       -6.2174262490        9.4777844942  MEMB      8               0.0000000000
      1086        14  POPC      C27           -13.8935649876       -5.5951943397        9.0111816246  MEMB      8               0.0000000000
      1087        14  POPC      H7R           -13.8507560734       -4.6748125411        9.6319761744  MEMB      8               0.0000000000
      1088        14  POPC      H7S           -14.9709260532       -5.8474186921        9.1111668732  MEMB      8               0.0000000000
      1089        14  POPC      C28           -13.7731869635       -5.3337679043        7.4698579329  MEMB      8               0.0000000000
      1090        14  POPC      H8R           -14.5450597230       -4.6549013602        7.0483443902  MEMB      8               0.0000000000
      1091        14  POPC      H8S           -13.8701894110       -6.3018849380        6.9335182886  MEMB      8               0.0000000000
      1092        14  POPC      C29           -12.3425460608       -4.8449172009        7.2063830650  MEMB      8               0.0000000000
      1093        14  POPC      H91           -11.8988456492       -4.0780728194        7.8583641446  MEMB      8               0.0000000000
      1094        14  POPC      C210          -11.5464631043       -5.1589432259        6.2085664448  MEMB      8               0.0000000000
      1095        14  POPC      H101          -10.5392122561       -4.7196482080        6.2582214974  MEMB      8               0.0000000000
      1096        14  POPC      C211          -11.9465830993       -6.0677917868        5.0988730028  MEMB      8               0.0000000000
      1097        14  POPC      H11R          -12.8262700224       -6.6979215399        5.3506825378  MEMB      8               0.0000000000
      1098        14  POPC      H11S          -11.0923188996       -6.7723951002        5.0089391944  MEMB      8               0.0000000000
      1099        14  POPC      C212          -12.2497524958       -5.2986967152        3.7918647952  MEMB      8               0.0000000000
      1100        14  POPC      H12R          -12.8143804840       -4.3562978041        3.9573938612  MEMB      8               0.0000000000
      1101        14  POPC      H12S          -12.8931261144       -5.9783490137        3.1931454333  MEMB      8               0.0000000000
      1102        14  POPC      C213          -10.9909671376       -4.8487665822        2.9935989835  MEMB      8               0.0000000000
      1103        14  POPC      H13R          -10.3613571840       -5.7009779867        2.6594617922  MEMB      8               0.0000000000
      1104        14  POPC      H13S          -10.4177615780       -4.2552896752        3.7376027324  MEMB      8               0.0000000000
      1105        14  POPC      C214          -11.2425359852       -3.8549980324        1.8114656492  MEMB      8               0.0000000000
      1106        14  POPC      H14R          -11.0939130500       -2.8063241382        2.1468993201  MEMB      8               0.0000000000
      1107        14  POPC      H14S          -12.2443186657       -3.8774224386        1.3316232561  MEMB      8               0.0000000000
      1108        14  POPC      C215          -10.1893494974       -4.1357436141        0.6712911932  MEMB      8               0.0000000000
      1109        14  POPC      H15R          -10.7028174738       -5.0534661176        0.3128830978  MEMB      8               0.0000000000
      1110        14  POPC      H15S           -9.2058667193       -4.5141537198        1.0232697504  MEMB      8               0.0000000000
      1111        14  POPC      C216          -10.1862341281       -3.0145239352       -0.4474652758  MEMB      8               0.0000000000
      1112        14  POPC      H16R           -9.6681164053       -3.3459833417       -1.3726732222  MEMB      8               0.0000000000
      1113        14  POPC      H16S           -9.7183665240       -2.1378294358        0.0493518123  MEMB      8               0.0000000000
      1114        14  POPC      C217          -11.5412837672       -2.6140455994       -1.0282308539  MEMB      8               0.0000000000
      1115        14  POPC      H17R          -11.4642395260       -1.6157429826       -1.5096633781  MEMB      8               0.0000000000
      1116        14  POPC      H17S          -12.4139684624       -2.4346670330       -0.3644783862  MEMB      8               0.0000000000
      1117        14  POPC      C218          -11.9342958028       -3.6923302047       -2.0570300917  MEMB      8               0.0000000000
      1118        14  POPC      H18R          -13.0338490644       -3.7291990519       -2.2117695786  MEMB      8               0.0000000000
      1119        14  POPC      H18S          -11.6576930373       -4.7032974947       -1.6885773784  MEMB      8               0.0000000000
      1120        14  POPC      H18T          -11.4992544202       -3.4509264809       -3.0503986471  MEMB      8               0.0000000000
      1121        14  POPC      C33           -13.1727479891       -1.0942778092       12.8659945697  MEMB      8               0.0000000000
      1122        14  POPC      H3X           -12.6965807126       -2.0918337494       12.7543358097  MEMB      8               0.0000000000
      1123        14  POPC      H3Y           -12.4877878413       -0.2198241935       12.8879367259  MEMB      8               0.0000000000
      1124        14  POPC      C34           -13.8297867655       -0.8222393047       11.5435336803  MEMB      8               0.0000000000
      1125        14  POPC      H4X           -14.8062622584       -1.3247255376       11.3752356986  MEMB      8               0.0000000000
      1126        14  POPC      H4Y           -13.0551141534       -1.1462134285       10.8160423806  MEMB      8               0.0000000000
      1127        14  POPC      C35           -14.2178753344        0.6249229879       11.3063867671  MEMB      8               0.0000000000
      1128        14  POPC      H5X           -13.3064213324        1.2563899249       11.3758274619  MEMB      8               0.0000000000
      1129        14  POPC      H5Y           -15.0261390210        1.0139939246       11.9618674437  MEMB      8               0.0000000000
      1130        14  POPC      C36           -14.6214393908        0.7989062390        9.7815269815  MEMB      8               0.0000000000
      1131        14  POPC      H6X           -13.7148162490        0.5849394014        9.1760737275  MEMB      8               0.0000000000
      1132        14  POPC      H6Y           -14.7330096714        1.9038363824        9.7498668624  MEMB      8               0.0000000000
      1133        14  POPC      C37           -15.8455942561        0.0807625195        9.2219597623  MEMB      8               0.0000000000
      1134        14  POPC      H7X           -16.7493101835        0.2202600412        9.8529579296  MEMB      8               0.0000000000
      1135        14  POPC      H7Y           -15.5828224433       -0.9986617526        9.2326869773  MEMB      8               0.0000000000
      1136        14  POPC      C38           -16.1048859641        0.5836062358        7.8142537552  MEMB      8               0.0000000000
      1137        14  POPC      H8X           -15.1927666709        0.5584367067        7.1804351117  MEMB      8               0.0000000000
      1138        14  POPC      H8Y           -16.3615672994        1.6397743249        8.0443514783  MEMB      8               0.0000000000
      1139        14  POPC      C39           -17.3084005661       -0.0023928232        7.0637859066  MEMB      8               0.0000000000
      1140        14  POPC      H9X           -17.5102824887        0.6208491266        6.1664937330  MEMB      8               0.0000000000
      1141        14  POPC      H9Y           -18.2139396842        0.0366412416        7.7062784150  MEMB      8               0.0000000000
      1142        14  POPC      C310          -16.9670820035       -1.4156055555        6.7468182113  MEMB      8               0.0000000000
      1143        14  POPC      H10X          -16.7318909970       -1.9339640472        7.7009207497  MEMB      8               0.0000000000
      1144        14  POPC      H10Y          -15.9917645030       -1.5015709995        6.2217603762  MEMB      8               0.0000000000
      1145        14  POPC      C311          -17.9812051199       -2.3777145739        6.0343531512  MEMB      8               0.0000000000
      1146        14  POPC      H11X          -18.3988130631       -1.8339677831        5.1601308762  MEMB      8               0.0000000000
      1147        14  POPC      H11Y          -18.8143262207       -2.5354421822        6.7522339542  MEMB      8               0.0000000000
      1148        14  POPC      C312          -17.3129585912       -3.7031271810        5.4923278245  MEMB      8               0.0000000000
      1149        14  POPC      H12X          -18.1209645768       -4.3507369768        5.0897754620  MEMB      8               0.0000000000
      1150        14  POPC      H12Y          -16.7852984517       -4.1570705066        6.3582558190  MEMB      8               0.0000000000
      1151        14  POPC      C313          -16.2583636083       -3.5041649959        4.3628794800  MEMB      8               0.0000000000
      1152        14  POPC      H13X          -15.7842773970       -4.5089322984        4.3604610313  MEMB      8               0.0000000000
      1153        14  POPC      H13Y          -15.4706093218       -2.8296516366        4.7613719175  MEMB      8               0.0000000000
      1154        14  POPC      C314          -16.7858388639       -3.0656117611        2.9804497006  MEMB      8               0.0000000000
      1155        14  POPC      H14X          -17.2059077051       -2.0381813652        3.0278820986  MEMB      8               0.0000000000
      1156        14  POPC      H14Y          -17.6534614724       -3.6871517357        2.6718393150  MEMB      8               0.0000000000
      1157        14  POPC      C315          -15.7906008664       -3.1599876972        1.8118580872  MEMB      8               0.0000000000
      1158        14  POPC      H15X          -15.3200072707       -4.1641072945        1.8797279782  MEMB      8               0.0000000000
      1159        14  POPC      H15Y          -14.9436173269       -2.4515619161        1.9346299820  MEMB      8               0.0000000000
      1160        14  POPC      C316          -16.4125115601       -3.1214226226        0.3491924956  MEMB      8               0.0000000000
      1161        14  POPC      H16X          -15.6054343471       -3.4737149508       -0.3281821956  MEMB      8               0.0000000000
      1162        14  POPC      H16Y          -16.8342488870       -2.2047939333       -0.1158352848  MEMB      8               0.0000000000
      1163        14  POPC      H16Z          -17.1362291193       -3.9643658182        0.3497242016  MEMB      8               0.0000000000
      1164        15  POPC      N              -3.7020582905      -13.2266055239       17.0983076978  MEMB      9               0.0000000000
      1165        15  POPC      C12            -5.1132345542      -13.1198614546       17.5672216138  MEMB      9               0.0000000000
      1166        15  POPC      H12A           -5.4345764205      -14.1267070317       17.7894858969  MEMB      9               0.0000000000
      1167        15  POPC      H12B           -5.7074101259      -12.6262701700       16.8124214788  MEMB      9               0.0000000000
      1168        15  POPC      C13            -2.9777063078      -14.2107153001       17.9823384576  MEMB      9               0.0000000000
      1169        15  POPC      H13A           -3.7781995161      -14.9280104874       18.0876866598  MEMB      9               0.0000000000
      1170        15  POPC      H13B           -2.1096295561      -14.6864834630       17.5504966785  MEMB      9               0.0000000000
      1171        15  POPC      H13C           -2.6599433342      -13.7416854179       18.9018153000  MEMB      9               0.0000000000
      1172        15  POPC      C14            -3.7150931932      -13.7361092263       15.6932619573  MEMB      9               0.0000000000
      1173        15  POPC      H14A           -2.7155011728      -13.9010910316       15.3191007923  MEMB      9               0.0000000000
      1174        15  POPC      H14B           -4.3285720402      -14.6184494277       15.5859338979  MEMB      9               0.0000000000
      1175        15  POPC      H14C           -4.1608307548      -12.9321536850       15.1263639327  MEMB      9               0.0000000000
      1176        15  POPC      C15            -2.9209471531      -11.9181820398       17.1714403921  MEMB      9               0.0000000000
      1177        15  POPC      H15A           -2.8650182092      -11.6099919828       18.2050219339  MEMB      9               0.0000000000
      1178        15  POPC      H15B           -3.4590300566      -11.2726045318       16.4931362604  MEMB      9               0.0000000000
      1179        15  POPC      H15C           -1.9195967345      -12.1028974004       16.8114715119  MEMB      9               0.0000000000
      1180        15  POPC      C11            -5.2988209167      -12.1569248276       18.7873875744  MEMB      9               0.0000000000
      1181        15  POPC      H11A           -6.3943607187      -12.1573066907       18.9720854914  MEMB      9               0.0000000000
      1182        15  POPC      H11B           -5.0502649165      -11.1298689786       18.4443174354  MEMB      9               0.0000000000
      1183        15  POPC      P              -5.3380686335      -13.5328622335       21.0196258209  MEMB      9               0.0000000000
      1184        15  POPC      O13            -6.6113151054      -12.8264215565       21.4536809798  MEMB      9               0.0000000000
      1185        15  POPC      O14            -4.4814676041      -14.0146072415       22.1142565794  MEMB      9               0.0000000000
      1186        15  POPC      O12            -4.6337587131      -12.5806940265       19.9581314254  MEMB      9               0.0000000000
      1187        15  POPC      O11            -5.7226254092      -14.8775149701       20.1543475354  MEMB      9               0.0000000000
      1188        15  POPC      C1             -7.0705043967      -15.0612229498       19.7774746642  MEMB      9               0.0000000000
      1189        15  POPC      HA             -7.2929694588      -14.1463011365       19.1877726095  MEMB      9               0.0000000000
      1190        15  POPC      HB             -7.7482873178      -15.0144945154       20.6565354531  MEMB      9               0.0000000000
      1191        15  POPC      C2             -7.1883655373      -16.3005322728       18.8562532667  MEMB      9               0.0000000000
      1192        15  POPC      HS             -7.1674013527      -17.2312260683       19.4626279165  MEMB      9               0.0000000000
      1193        15  POPC      O21            -6.1481568340      -16.3292998626       17.8494986985  MEMB      9               0.0000000000
      1194        15  POPC      C21            -6.1493231244      -17.5048932655       17.1448155581  MEMB      9               0.0000000000
      1195        15  POPC      O22            -6.6763614720      -18.5402076322       17.5710894943  MEMB      9               0.0000000000
      1196        15  POPC      C22            -5.4767178046      -17.3950087154       15.7495327781  MEMB      9               0.0000000000
      1197        15  POPC      H2R            -4.8820268965      -16.4672279226       15.6085123022  MEMB      9               0.0000000000
      1198        15  POPC      H2S            -6.2517905462      -17.1836682062       14.9821225838  MEMB      9               0.0000000000
      1199        15  POPC      C3             -8.6450170168      -16.2212412288       18.0790273171  MEMB      9               0.0000000000
      1200        15  POPC      HX             -9.3707334422      -16.1957140199       18.9198633700  MEMB      9               0.0000000000
      1201        15  POPC      HY             -8.7915369659      -17.1782357498       17.5340370388  MEMB      9               0.0000000000
      1202        15  POPC      O31            -8.8886650509      -15.1009618619       17.2172606096  MEMB      9               0.0000000000
      1203        15  POPC      C31            -9.5638125590      -15.4194131998       16.1032567661  MEMB      9               0.0000000000
      1204        15  POPC      O32           -10.0120043257      -16.5375678471       15.8650365094  MEMB      9               0.0000000000
      1205        15  POPC      C32            -9.5910729194      -14.1799830904       15.2449675977  MEMB      9               0.0000000000
      1206        15  POPC      H2X           -10.6455888197      -13.9617038573       14.9717072444  MEMB      9               0.0000000000
      1207        15  POPC      H2Y            -9.2218404213      -14.3792899474       14.2162477573  MEMB      9               0.0000000000
      1208        15  POPC      C23            -4.7539922174      -18.6862648357       15.4770947447  MEMB      9               0.0000000000
      1209        15  POPC      H3R            -5.4891759241      -19.5111088128       15.5931046224  MEMB      9               0.0000000000
      1210        15  POPC      H3S            -3.9912492450      -18.8478633942       16.2685684004  MEMB      9               0.0000000000
      1211        15  POPC      C24            -4.1331902023      -18.8014532894       14.0546242507  MEMB      9               0.0000000000
      1212        15  POPC      H4R            -3.3070591660      -19.5320003225       14.1892695805  MEMB      9               0.0000000000
      1213        15  POPC      H4S            -3.5984674623      -17.9147418448       13.6519638793  MEMB      9               0.0000000000
      1214        15  POPC      C25            -5.1991923051      -19.3644845042       13.0352863422  MEMB      9               0.0000000000
      1215        15  POPC      H5R            -5.9284906403      -20.0909947951       13.4531711927  MEMB      9               0.0000000000
      1216        15  POPC      H5S            -4.6674767583      -19.8995130266       12.2195997820  MEMB      9               0.0000000000
      1217        15  POPC      C26            -5.9689003204      -18.2948484934       12.2276791119  MEMB      9               0.0000000000
      1218        15  POPC      H6R            -6.5697268106      -17.6628285906       12.9160681465  MEMB      9               0.0000000000
      1219        15  POPC      H6S            -6.7367370172      -18.7399887029       11.5593988819  MEMB      9               0.0000000000
      1220        15  POPC      C27            -5.1915797779      -17.2635127600       11.3958413266  MEMB      9               0.0000000000
      1221        15  POPC      H7R            -4.5299596079      -16.6879464324       12.0779725425  MEMB      9               0.0000000000
      1222        15  POPC      H7S            -5.9732883540      -16.6885166864       10.8548861072  MEMB      9               0.0000000000
      1223        15  POPC      C28            -4.2265602280      -17.8140854664       10.2583617594  MEMB      9               0.0000000000
      1224        15  POPC      H8R            -3.3861000399      -18.2990333254       10.7994472461  MEMB      9               0.0000000000
      1225        15  POPC      H8S            -3.7500748008      -17.0222264659        9.6417243538  MEMB      9               0.0000000000
      1226        15  POPC      C29            -4.9077255122      -18.7541952680        9.3203464485  MEMB      9               0.0000000000
      1227        15  POPC      H91            -4.8178132708      -19.8336396528        9.5119597978  MEMB      9               0.0000000000
      1228        15  POPC      C210           -5.7622415606      -18.4107796358        8.3262308582  MEMB      9               0.0000000000
      1229        15  POPC      H101           -6.2533411613      -19.2189843769        7.7644244353  MEMB      9               0.0000000000
      1230        15  POPC      C211           -6.1281250197      -16.9847335044        7.9151721107  MEMB      9               0.0000000000
      1231        15  POPC      H11R           -5.4243291356      -16.2068649163        8.2811138656  MEMB      9               0.0000000000
      1232        15  POPC      H11S           -7.1199464546      -16.6994215693        8.3265218335  MEMB      9               0.0000000000
      1233        15  POPC      C212           -6.1415937085      -16.8818206245        6.4642556077  MEMB      9               0.0000000000
      1234        15  POPC      H12R           -5.1557872755      -17.0640131372        5.9853895261  MEMB      9               0.0000000000
      1235        15  POPC      H12S           -6.3699715408      -15.8032507451        6.3269548633  MEMB      9               0.0000000000
      1236        15  POPC      C213           -7.2468362503      -17.6301479899        5.6704988879  MEMB      9               0.0000000000
      1237        15  POPC      H13R           -8.1957938967      -17.7091660391        6.2428246470  MEMB      9               0.0000000000
      1238        15  POPC      H13S           -6.8993596501      -18.6659495903        5.4687667107  MEMB      9               0.0000000000
      1239        15  POPC      C214           -7.6625917672      -16.9808341993        4.3291663960  MEMB      9               0.0000000000
      1240        15  POPC      H14R           -7.6495930750      -17.7854346836        3.5631566600  MEMB      9               0.0000000000
      1241        15  POPC      H14S           -6.9388077587      -16.2417411351        3.9239519095  MEMB      9               0.0000000000
      1242        15  POPC      C215           -9.1040663613      -16.4687204036        4.2788005436  MEMB      9               0.0000000000
      1243        15  POPC      H15R           -9.3284627462      -15.9035341446        5.2086022088  MEMB      9               0.0000000000
      1244        15  POPC      H15S           -9.7034705656      -17.4014777846        4.2080929673  MEMB      9               0.0000000000
      1245        15  POPC      C216           -9.4690120888      -15.4668291163        3.1010613716  MEMB      9               0.0000000000
      1246        15  POPC      H16R           -8.9155892071      -14.5034855244        3.1046698800  MEMB      9               0.0000000000
      1247        15  POPC      H16S          -10.5622619893      -15.2991773387        3.2060302585  MEMB      9               0.0000000000
      1248        15  POPC      C217           -9.3967856620      -16.0599556712        1.6770473882  MEMB      9               0.0000000000
      1249        15  POPC      H17R           -8.3344710419      -16.3751242486        1.5965654335  MEMB      9               0.0000000000
      1250        15  POPC      H17S           -9.5361532052      -15.2462661443        0.9335375140  MEMB      9               0.0000000000
      1251        15  POPC      C218          -10.2214560492      -17.2868710367        1.2434403464  MEMB      9               0.0000000000
      1252        15  POPC      H18R           -9.8428041439      -17.5729115400        0.2388880805  MEMB      9               0.0000000000
      1253        15  POPC      H18S          -11.2690252156      -16.9283518540        1.1518763974  MEMB      9               0.0000000000
      1254        15  POPC      H18T          -10.2748396565      -18.0888667099        2.0104303267  MEMB      9               0.0000000000
      1255        15  POPC      C33            -8.9421995565      -12.9609064524       15.8607366223  MEMB      9               0.0000000000
      1256        15  POPC      H3X            -7.8875361382      -13.1510166081       16.1537627443  MEMB      9               0.0000000000
      1257        15  POPC      H3Y            -9.6507119450      -12.6372092481       16.6529179409  MEMB      9               0.0000000000
      1258        15  POPC      C34            -8.8046965637      -11.8098301836       14.7637587489  MEMB      9               0.0000000000
      1259        15  POPC      H4X            -8.7105579388      -10.8134107137       15.2460525191  MEMB      9               0.0000000000
      1260        15  POPC      H4Y            -9.5613550148      -11.6839294940       13.9600560163  MEMB      9               0.0000000000
      1261        15  POPC      C35            -7.5005592943      -12.0416768182       14.0078150414  MEMB      9               0.0000000000
      1262        15  POPC      H5X            -7.5796040264      -13.0450359342       13.5373435234  MEMB      9               0.0000000000
      1263        15  POPC      H5Y            -6.5949181499      -12.0386009785       14.6513408889  MEMB      9               0.0000000000
      1264        15  POPC      C36            -7.3122309970      -11.1821429799       12.7861418825  MEMB      9               0.0000000000
      1265        15  POPC      H6X            -7.4513007783      -10.1243093955       13.0959299777  MEMB      9               0.0000000000
      1266        15  POPC      H6Y            -7.9495018549      -11.4326775847       11.9112478632  MEMB      9               0.0000000000
      1267        15  POPC      C37            -5.8303778911      -11.1564308536       12.3352209587  MEMB      9               0.0000000000
      1268        15  POPC      H7X            -5.2216969371      -10.9567592290       13.2429429721  MEMB      9               0.0000000000
      1269        15  POPC      H7Y            -5.6051333406      -10.3675055189       11.5860995041  MEMB      9               0.0000000000
      1270        15  POPC      C38            -5.4203745122      -12.5237207431       11.6724101583  MEMB      9               0.0000000000
      1271        15  POPC      H8X            -6.1793143657      -12.8996599091       10.9533821479  MEMB      9               0.0000000000
      1272        15  POPC      H8Y            -5.4870623847      -13.1852904531       12.5624656699  MEMB      9               0.0000000000
      1273        15  POPC      C39            -3.9668434032      -12.4671672958       11.1251538184  MEMB      9               0.0000000000
      1274        15  POPC      H9X            -3.7935460642      -13.5253589629       10.8344313336  MEMB      9               0.0000000000
      1275        15  POPC      H9Y            -3.3347620379      -12.1290933426       11.9739763386  MEMB      9               0.0000000000
      1276        15  POPC      C310           -3.7808297702      -11.4704521114        9.9081346680  MEMB      9               0.0000000000
      1277        15  POPC      H10X           -2.7381457694      -11.3624786694        9.5400679332  MEMB      9               0.0000000000
      1278        15  POPC      H10Y           -3.9121165148      -10.4610356352       10.3532900784  MEMB      9               0.0000000000
      1279        15  POPC      C311           -4.7706576931      -11.7039508769        8.7314380522  MEMB      9               0.0000000000
      1280        15  POPC      H11X           -5.8317945906      -11.5332793764        9.0128281800  MEMB      9               0.0000000000
      1281        15  POPC      H11Y           -4.6264787322      -12.7495573331        8.3846801270  MEMB      9               0.0000000000
      1282        15  POPC      C312           -4.3987514135      -10.8360166891        7.4874125819  MEMB      9               0.0000000000
      1283        15  POPC      H12X           -3.3305416316      -10.7695386965        7.1893696751  MEMB      9               0.0000000000
      1284        15  POPC      H12Y           -4.7154690367       -9.8109947808        7.7761016907  MEMB      9               0.0000000000
      1285        15  POPC      C313           -5.0291887823      -11.2812827858        6.1505891809  MEMB      9               0.0000000000
      1286        15  POPC      H13X           -4.8737781400      -10.4598939179        5.4188182248  MEMB      9               0.0000000000
      1287        15  POPC      H13Y           -6.1254486841      -11.2297993694        6.3234610822  MEMB      9               0.0000000000
      1288        15  POPC      C314           -4.5563297920      -12.6272753996        5.5542904572  MEMB      9               0.0000000000
      1289        15  POPC      H14X           -4.4414057825      -13.4560122087        6.2852545868  MEMB      9               0.0000000000
      1290        15  POPC      H14Y           -3.5533363055      -12.4904654299        5.0964611367  MEMB      9               0.0000000000
      1291        15  POPC      C315           -5.6128669998      -13.0007052682        4.5317150887  MEMB      9               0.0000000000
      1292        15  POPC      H15X           -6.6323798852      -13.0695525255        4.9678046042  MEMB      9               0.0000000000
      1293        15  POPC      H15Y           -5.2836233659      -13.9844061634        4.1339052233  MEMB      9               0.0000000000
      1294        15  POPC      C316           -5.8415579379      -11.9887377448        3.3672267782  MEMB      9               0.0000000000
      1295        15  POPC      H16X           -4.8425569270      -11.6904944584        2.9833407613  MEMB      9               0.0000000000
      1296        15  POPC      H16Y           -6.3442646638      -11.0491525385        3.6815302925  MEMB      9               0.0000000000
      1297        15  POPC      H16Z           -6.5037053560      -12.3835146173        2.5672073245  MEMB      9               0.0000000000
      1298        16  POPC      N               8.2112299446      -10.6816602246       17.5041352525  MEMB      10              0.0000000000
      1299        16  POPC      C12             8.9315161132      -11.8136053497       18.1838531765  MEMB      10              0.0000000000
      1300        16  POPC      H12A            9.6823812554      -12.0999875288       17.4623362134  MEMB      10              0.0000000000
      1301        16  POPC      H12B            8.3262661594      -12.6791299115       18.4095522890  MEMB      10              0.0000000000
      1302        16  POPC      C13             9.0923074968       -9.4356956094       17.4185185858  MEMB      10              0.0000000000
      1303        16  POPC      H13A           10.0489699381       -9.7376116500       17.0184639972  MEMB      10              0.0000000000
      1304        16  POPC      H13B            8.6815003840       -8.6702246806       16.7768866185  MEMB      10              0.0000000000
      1305        16  POPC      H13C            9.3414556736       -9.0711108074       18.4041164033  MEMB      10              0.0000000000
      1306        16  POPC      C14             7.8537702039      -11.1779809939       16.1130494113  MEMB      10              0.0000000000
      1307        16  POPC      H14A            7.5456506592      -12.2059530295       16.2344422142  MEMB      10              0.0000000000
      1308        16  POPC      H14B            7.1216129878      -10.5715347988       15.6006348126  MEMB      10              0.0000000000
      1309        16  POPC      H14C            8.6610828747      -11.0990422782       15.4000171945  MEMB      10              0.0000000000
      1310        16  POPC      C15             6.8418228983      -10.4254460356       18.1907519632  MEMB      10              0.0000000000
      1311        16  POPC      H15A            6.9671656920       -9.9054679747       19.1290013606  MEMB      10              0.0000000000
      1312        16  POPC      H15B            6.4164120793      -11.3923323651       18.4155999815  MEMB      10              0.0000000000
      1313        16  POPC      H15C            6.2053948812       -9.8226156292       17.5599153920  MEMB      10              0.0000000000
      1314        16  POPC      C11             9.6179504653      -11.4863459185       19.5443431232  MEMB      10              0.0000000000
      1315        16  POPC      H11A            9.8763860624      -12.4916388841       19.9404720438  MEMB      10              0.0000000000
      1316        16  POPC      H11B            8.7928244249      -11.1839709004       20.2240911571  MEMB      10              0.0000000000
      1317        16  POPC      P              11.3066523536       -9.7561399122       20.4346134533  MEMB      10              0.0000000000
      1318        16  POPC      O13            10.8423387715      -10.3526295467       21.6635023078  MEMB      10              0.0000000000
      1319        16  POPC      O14            10.9778925146       -8.2952183234       20.2177607100  MEMB      10              0.0000000000
      1320        16  POPC      O12            10.6897265173      -10.6161241339       19.2859549389  MEMB      10              0.0000000000
      1321        16  POPC      O11            12.8532648454      -10.1270143508       20.4435170809  MEMB      10              0.0000000000
      1322        16  POPC      C1             13.6633597364      -10.4025149499       19.4460661093  MEMB      10              0.0000000000
      1323        16  POPC      HA             13.2610235109      -11.0569121829       18.6434386334  MEMB      10              0.0000000000
      1324        16  POPC      HB             14.5466971187      -10.9404575997       19.8518413143  MEMB      10              0.0000000000
      1325        16  POPC      C2             14.1354432476       -9.0750798732       18.7082985949  MEMB      10              0.0000000000
      1326        16  POPC      HS             14.2765549529       -8.3522532571       19.5401218776  MEMB      10              0.0000000000
      1327        16  POPC      O21            12.9560934005       -8.6123907955       17.9068167700  MEMB      10              0.0000000000
      1328        16  POPC      C21            12.8824388031       -7.3351030952       17.7975323154  MEMB      10              0.0000000000
      1329        16  POPC      O22            13.5580161490       -6.5145875674       18.3769261665  MEMB      10              0.0000000000
      1330        16  POPC      C22            11.8200978481       -7.0660435874       16.7355729746  MEMB      10              0.0000000000
      1331        16  POPC      H2R            10.8941806383       -7.3189115624       17.2950872323  MEMB      10              0.0000000000
      1332        16  POPC      H2S            11.9133582539       -7.6995548907       15.8276704116  MEMB      10              0.0000000000
      1333        16  POPC      C3             15.3771005014       -9.2756470305       17.8134391429  MEMB      10              0.0000000000
      1334        16  POPC      HX             16.1277365064       -9.5856368521       18.5715771752  MEMB      10              0.0000000000
      1335        16  POPC      HY             15.6884118870       -8.2996992310       17.3834013164  MEMB      10              0.0000000000
      1336        16  POPC      O31            15.0785380335      -10.3633667295       16.9289915099  MEMB      10              0.0000000000
      1337        16  POPC      C31            14.7276819272      -10.1856942060       15.6767153775  MEMB      10              0.0000000000
      1338        16  POPC      O32            14.7431313023       -9.0936904394       15.1027412073  MEMB      10              0.0000000000
      1339        16  POPC      C32            14.2445817573      -11.5599377475       15.0740166290  MEMB      10              0.0000000000
      1340        16  POPC      H2X            13.2544276230      -11.8578454591       15.4804240468  MEMB      10              0.0000000000
      1341        16  POPC      H2Y            14.9350927707      -12.2604492833       15.5905423522  MEMB      10              0.0000000000
      1342        16  POPC      C23            11.8726135020       -5.6100817878       16.4509753360  MEMB      10              0.0000000000
      1343        16  POPC      H3R            12.7249262053       -5.4854026522       15.7493060402  MEMB      10              0.0000000000
      1344        16  POPC      H3S            12.0420658661       -4.9897271793       17.3569371220  MEMB      10              0.0000000000
      1345        16  POPC      C24            10.5851949587       -5.2776375045       15.6727909194  MEMB      10              0.0000000000
      1346        16  POPC      H4R            10.4963145929       -4.1706367150       15.6416263335  MEMB      10              0.0000000000
      1347        16  POPC      H4S             9.7416857814       -5.6495830408       16.2928472102  MEMB      10              0.0000000000
      1348        16  POPC      C25            10.4618789577       -5.9367216874       14.2256833427  MEMB      10              0.0000000000
      1349        16  POPC      H5R            10.6254552041       -7.0281163051       14.3538304810  MEMB      10              0.0000000000
      1350        16  POPC      H5S            11.1561930464       -5.5575690062       13.4456240272  MEMB      10              0.0000000000
      1351        16  POPC      C26             9.1367339059       -5.5770812792       13.5618849312  MEMB      10              0.0000000000
      1352        16  POPC      H6R             9.1749099331       -4.5039649030       13.2767793228  MEMB      10              0.0000000000
      1353        16  POPC      H6S             8.3131155154       -5.9256111317       14.2210518837  MEMB      10              0.0000000000
      1354        16  POPC      C27             8.8991396177       -6.2660694911       12.1577987120  MEMB      10              0.0000000000
      1355        16  POPC      H7R             8.0077535358       -5.7168189581       11.7862133795  MEMB      10              0.0000000000
      1356        16  POPC      H7S             8.6731135237       -7.3397116350       12.3325152731  MEMB      10              0.0000000000
      1357        16  POPC      C28            10.0558566165       -5.9914004961       11.1539793286  MEMB      10              0.0000000000
      1358        16  POPC      H8R            11.0245674963       -6.4778472468       11.3974738906  MEMB      10              0.0000000000
      1359        16  POPC      H8S            10.2483270832       -4.8972132455       11.1484720786  MEMB      10              0.0000000000
      1360        16  POPC      C29             9.5223762721       -6.4008989061        9.7712157192  MEMB      10              0.0000000000
      1361        16  POPC      H91             8.6259155161       -5.9656602975        9.3054635122  MEMB      10              0.0000000000
      1362        16  POPC      C210           10.0551929024       -7.3573571156        9.0060431482  MEMB      10              0.0000000000
      1363        16  POPC      H101            9.7002304751       -7.5827245736        7.9895723556  MEMB      10              0.0000000000
      1364        16  POPC      C211           11.2980527213       -8.2008023010        9.3828040977  MEMB      10              0.0000000000
      1365        16  POPC      H11R           11.2910355999       -9.1217466939        8.7614073848  MEMB      10              0.0000000000
      1366        16  POPC      H11S           11.2806120380       -8.4092866050       10.4739277534  MEMB      10              0.0000000000
      1367        16  POPC      C212           12.7076031015       -7.6565648370        9.0576938165  MEMB      10              0.0000000000
      1368        16  POPC      H12R           13.4522466555       -8.4294741848        9.3448142423  MEMB      10              0.0000000000
      1369        16  POPC      H12S           12.9629973144       -6.7681695226        9.6740124879  MEMB      10              0.0000000000
      1370        16  POPC      C213           12.9490117228       -7.3875312735        7.5682873917  MEMB      10              0.0000000000
      1371        16  POPC      H13R           13.8122785764       -6.6953773737        7.4682168802  MEMB      10              0.0000000000
      1372        16  POPC      H13S           12.0630859511       -6.7450085368        7.3769208564  MEMB      10              0.0000000000
      1373        16  POPC      C214           13.1974633275       -8.4905670360        6.5431806134  MEMB      10              0.0000000000
      1374        16  POPC      H14R           12.4237914632       -9.2724206771        6.6995706134  MEMB      10              0.0000000000
      1375        16  POPC      H14S           14.2248763420       -8.8806202800        6.7062810021  MEMB      10              0.0000000000
      1376        16  POPC      C215           13.0567892215       -7.9087035121        5.1120002874  MEMB      10              0.0000000000
      1377        16  POPC      H15R           13.5049759159       -8.7272781776        4.5091861785  MEMB      10              0.0000000000
      1378        16  POPC      H15S           13.6170797386       -6.9623013231        4.9547810938  MEMB      10              0.0000000000
      1379        16  POPC      C216           11.5995712686       -7.5714861476        4.7056810582  MEMB      10              0.0000000000
      1380        16  POPC      H16R           11.1624540950       -6.9346637111        5.5042469022  MEMB      10              0.0000000000
      1381        16  POPC      H16S           11.0403739582       -8.5214897019        4.5674331576  MEMB      10              0.0000000000
      1382        16  POPC      C217           11.5081637965       -6.6820898364        3.4695619968  MEMB      10              0.0000000000
      1383        16  POPC      H17R           11.9598447737       -7.2034860533        2.5986700217  MEMB      10              0.0000000000
      1384        16  POPC      H17S           12.1678910023       -5.8429592050        3.7776871297  MEMB      10              0.0000000000
      1385        16  POPC      C218           10.0568019519       -6.1868866110        3.2229382583  MEMB      10              0.0000000000
      1386        16  POPC      H18R            9.7050727126       -5.5932691894        4.0936996758  MEMB      10              0.0000000000
      1387        16  POPC      H18S            9.5360889192       -7.1600064861        3.0955940735  MEMB      10              0.0000000000
      1388        16  POPC      H18T           10.0136418269       -5.5088482389        2.3438930771  MEMB      10              0.0000000000
      1389        16  POPC      C33            14.2513678322      -11.5510599517       13.5656841056  MEMB      10              0.0000000000
      1390        16  POPC      H3X            15.2139572230      -11.2530510148       13.0977807354  MEMB      10              0.0000000000
      1391        16  POPC      H3Y            13.4675996938      -10.7990094325       13.3323419730  MEMB      10              0.0000000000
      1392        16  POPC      C34            13.5831021795      -12.7816575126       12.8743799225  MEMB      10              0.0000000000
      1393        16  POPC      H4X            12.5733573651      -13.0118673424       13.2765484247  MEMB      10              0.0000000000
      1394        16  POPC      H4Y            14.3868031170      -13.5472760807       12.9214358661  MEMB      10              0.0000000000
      1395        16  POPC      C35            13.3596720392      -12.5473329489       11.3907305452  MEMB      10              0.0000000000
      1396        16  POPC      H5X            14.3013072174      -12.2275140856       10.8953930226  MEMB      10              0.0000000000
      1397        16  POPC      H5Y            12.6510707479      -11.6944742244       11.3211815241  MEMB      10              0.0000000000
      1398        16  POPC      C36            12.6657699923      -13.7103145827       10.6780361489  MEMB      10              0.0000000000
      1399        16  POPC      H6X            11.8340729725      -14.1289523422       11.2841249255  MEMB      10              0.0000000000
      1400        16  POPC      H6Y            13.4089000225      -14.5355152260       10.6445370218  MEMB      10              0.0000000000
      1401        16  POPC      C37            12.1378052887      -13.3802942838        9.2636121367  MEMB      10              0.0000000000
      1402        16  POPC      H7X            12.9346335243      -12.8294383678        8.7196052279  MEMB      10              0.0000000000
      1403        16  POPC      H7Y            11.2437170825      -12.7224261322        9.3098389969  MEMB      10              0.0000000000
      1404        16  POPC      C38            11.8559882857      -14.7466407715        8.4760835712  MEMB      10              0.0000000000
      1405        16  POPC      H8X            11.2945406957      -15.4468727596        9.1308911564  MEMB      10              0.0000000000
      1406        16  POPC      H8Y            12.7776395466      -15.3539140876        8.3492016051  MEMB      10              0.0000000000
      1407        16  POPC      C39            11.2137300704      -14.5032445525        7.0578665175  MEMB      10              0.0000000000
      1408        16  POPC      H9X            10.3134176244      -13.8743551464        7.2259624222  MEMB      10              0.0000000000
      1409        16  POPC      H9Y            10.8496744745      -15.4216139489        6.5495533596  MEMB      10              0.0000000000
      1410        16  POPC      C310           12.1048868451      -13.7437649620        6.0183471467  MEMB      10              0.0000000000
      1411        16  POPC      H10X           12.8356592741      -14.3940458180        5.4916330659  MEMB      10              0.0000000000
      1412        16  POPC      H10Y           12.6696351080      -13.0055080677        6.6269169180  MEMB      10              0.0000000000
      1413        16  POPC      C311           11.2912891990      -13.2223663795        4.8398054793  MEMB      10              0.0000000000
      1414        16  POPC      H11X           10.5674913038      -12.5330500987        5.3248622996  MEMB      10              0.0000000000
      1415        16  POPC      H11Y           10.6974163070      -14.0042639440        4.3199287069  MEMB      10              0.0000000000
      1416        16  POPC      C312           12.0166757953      -12.2726658998        3.7765012356  MEMB      10              0.0000000000
      1417        16  POPC      H12X           12.7169752642      -12.7649931540        3.0683245003  MEMB      10              0.0000000000
      1418        16  POPC      H12Y           12.5095270846      -11.4191186578        4.2892158116  MEMB      10              0.0000000000
      1419        16  POPC      C313           11.0639689834      -11.4436632061        2.8701779041  MEMB      10              0.0000000000
      1420        16  POPC      H13X           10.3809273259      -10.7360352568        3.3869358790  MEMB      10              0.0000000000
      1421        16  POPC      H13Y           10.4176154080      -12.2234480011        2.4135781864  MEMB      10              0.0000000000
      1422        16  POPC      C314           11.7942772639      -10.6292949665        1.8546313454  MEMB      10              0.0000000000
      1423        16  POPC      H14X           12.6305733401      -11.2439186258        1.4581891667  MEMB      10              0.0000000000
      1424        16  POPC      H14Y           12.3756195716       -9.8436034637        2.3828850242  MEMB      10              0.0000000000
      1425        16  POPC      C315           10.9039835842       -9.9596091515        0.7602545910  MEMB      10              0.0000000000
      1426        16  POPC      H15X           11.5408793507       -9.1960457588        0.2646167863  MEMB      10              0.0000000000
      1427        16  POPC      H15Y           10.0034347496       -9.5369203104        1.2548929630  MEMB      10              0.0000000000
      1428        16  POPC      C316           10.7119144239      -10.7916775121       -0.4886579013  MEMB      10              0.0000000000
      1429        16  POPC      H16X           10.0734843703      -10.2834634497       -1.2426134623  MEMB      10              0.0000000000
      1430        16  POPC      H16Y           10.0373988440      -11.5894804795       -0.1106895970  MEMB      10              0.0000000000
      1431        16  POPC      H16Z           11.6629984669      -11.1699116610       -0.9207449481  MEMB      10              0.0000000000
      1432        17  POPC      N              15.0915729540       -5.4408802693       20.7994113381  MEMB      11              0.0000000000
      1433        17  POPC      C12            14.6798232889       -5.6569032459       19.3418547760  MEMB      11              0.0000000000
      1434        17  POPC      H12A           13.6320739089       -5.4122530044       19.2482199519  MEMB      11              0.0000000000
      1435        17  POPC      H12B           14.6731867324       -6.7238501968       19.1745825041  MEMB      11              0.0000000000
      1436        17  POPC      C13            14.9715743737       -4.0486958751       21.3701048488  MEMB      11              0.0000000000
      1437        17  POPC      H13A           15.2035474015       -4.0829654487       22.4243411566  MEMB      11              0.0000000000
      1438        17  POPC      H13B           15.6186214009       -3.3772244751       20.8252597056  MEMB      11              0.0000000000
      1439        17  POPC      H13C           13.9664912078       -3.6600019489       21.2985168665  MEMB      11              0.0000000000
      1440        17  POPC      C14            14.1816663331       -6.2676386651       21.6726247434  MEMB      11              0.0000000000
      1441        17  POPC      H14A           13.1665020116       -6.1731157462       21.3163849955  MEMB      11              0.0000000000
      1442        17  POPC      H14B           14.3455340690       -7.3314271872       21.5837357698  MEMB      11              0.0000000000
      1443        17  POPC      H14C           14.3051352024       -5.9816338035       22.7067219052  MEMB      11              0.0000000000
      1444        17  POPC      C15            16.5366591193       -5.9591566265       20.9968929434  MEMB      11              0.0000000000
      1445        17  POPC      H15A           16.6789503515       -6.9899550746       20.7077431872  MEMB      11              0.0000000000
      1446        17  POPC      H15B           16.8458149699       -5.8515153362       22.0260846987  MEMB      11              0.0000000000
      1447        17  POPC      H15C           17.1906385891       -5.3998020532       20.3443337805  MEMB      11              0.0000000000
      1448        17  POPC      C11            15.4569909031       -4.9080392042       18.2880269154  MEMB      11              0.0000000000
      1449        17  POPC      H11A           15.2472208948       -5.4317225421       17.3309097772  MEMB      11              0.0000000000
      1450        17  POPC      H11B           16.5648530134       -4.8511648954       18.3490832131  MEMB      11              0.0000000000
      1451        17  POPC      P              15.3489639288       -2.4610926254       17.2493661967  MEMB      11              0.0000000000
      1452        17  POPC      O13            16.2252932250       -3.0809514093       16.1791745806  MEMB      11              0.0000000000
      1453        17  POPC      O14            15.8644275064       -1.2644302567       17.9678911131  MEMB      11              0.0000000000
      1454        17  POPC      O12            14.9779344443       -3.5850195893       18.3433796022  MEMB      11              0.0000000000
      1455        17  POPC      O11            13.8618148198       -2.0843805306       16.7912729439  MEMB      11              0.0000000000
      1456        17  POPC      C1             13.0218050462       -3.0020321515       16.0218265185  MEMB      11              0.0000000000
      1457        17  POPC      HA             11.9403724431       -3.0095562414       16.2763221853  MEMB      11              0.0000000000
      1458        17  POPC      HB             13.3352270442       -4.0504183030       16.2141130577  MEMB      11              0.0000000000
      1459        17  POPC      C2             13.1369680277       -2.8969574077       14.4302271463  MEMB      11              0.0000000000
      1460        17  POPC      HS             12.2753199004       -3.5135068327       14.0959364463  MEMB      11              0.0000000000
      1461        17  POPC      O21            14.4463589326       -3.3640687289       13.9332459362  MEMB      11              0.0000000000
      1462        17  POPC      C21            14.4414755672       -4.7204942271       13.5265631493  MEMB      11              0.0000000000
      1463        17  POPC      O22            13.5196685919       -5.4443713038       13.3916067985  MEMB      11              0.0000000000
      1464        17  POPC      C22            15.8853339130       -5.0756193714       13.2455844468  MEMB      11              0.0000000000
      1465        17  POPC      H2R            16.1707369964       -5.7302862884       14.0966291475  MEMB      11              0.0000000000
      1466        17  POPC      H2S            16.5555560483       -4.1896260340       13.2337964825  MEMB      11              0.0000000000
      1467        17  POPC      C3             13.0844454008       -1.3910287773       14.0342621611  MEMB      11              0.0000000000
      1468        17  POPC      HX             13.9909351444       -0.9217549861       14.4728726008  MEMB      11              0.0000000000
      1469        17  POPC      HY             12.1575259302       -0.9888588954       14.4962151749  MEMB      11              0.0000000000
      1470        17  POPC      O31            12.9990857259       -1.2521253009       12.5938039619  MEMB      11              0.0000000000
      1471        17  POPC      C31            14.0281564419       -1.3287966734       11.7746706564  MEMB      11              0.0000000000
      1472        17  POPC      O32            15.1839871408       -1.3443421985       12.1759931511  MEMB      11              0.0000000000
      1473        17  POPC      C32            13.4844013019       -1.7434614408       10.4327747658  MEMB      11              0.0000000000
      1474        17  POPC      H2X            12.3761604922       -1.7459551997       10.3545635890  MEMB      11              0.0000000000
      1475        17  POPC      H2Y            13.9022411619       -2.7252862981       10.1233392932  MEMB      11              0.0000000000
      1476        17  POPC      C23            16.0324537499       -5.9299498373       11.9683006776  MEMB      11              0.0000000000
      1477        17  POPC      H3R            15.3298707191       -6.7828889159       11.8534396062  MEMB      11              0.0000000000
      1478        17  POPC      H3S            17.0042902153       -6.4677144429       11.9425315883  MEMB      11              0.0000000000
      1479        17  POPC      C24            16.0736002875       -5.0253014791       10.6655658628  MEMB      11              0.0000000000
      1480        17  POPC      H4R            16.5585530016       -4.1115339001       11.0707455484  MEMB      11              0.0000000000
      1481        17  POPC      H4S            14.9963141344       -4.9171683122       10.4164012680  MEMB      11              0.0000000000
      1482        17  POPC      C25            16.8092903998       -5.7125252817        9.5337747385  MEMB      11              0.0000000000
      1483        17  POPC      H5R            16.1812381361       -6.5928513090        9.2790243139  MEMB      11              0.0000000000
      1484        17  POPC      H5S            17.7642143453       -6.1015785328        9.9473906105  MEMB      11              0.0000000000
      1485        17  POPC      C26            16.9196656442       -4.6971943527        8.3329790053  MEMB      11              0.0000000000
      1486        17  POPC      H6R            17.3665205012       -3.7516701082        8.7079791877  MEMB      11              0.0000000000
      1487        17  POPC      H6S            15.9385724750       -4.2921580927        8.0047676102  MEMB      11              0.0000000000
      1488        17  POPC      C27            17.6698041025       -5.2817942708        7.1582125529  MEMB      11              0.0000000000
      1489        17  POPC      H7R            18.7395934525       -5.3064992909        7.4569785990  MEMB      11              0.0000000000
      1490        17  POPC      H7S            17.5327367189       -4.5541936192        6.3298818330  MEMB      11              0.0000000000
      1491        17  POPC      C28            17.1362428726       -6.7243834066        6.7259729397  MEMB      11              0.0000000000
      1492        17  POPC      H8R            16.0405920724       -6.5724357087        6.6221361282  MEMB      11              0.0000000000
      1493        17  POPC      H8S            17.3140659717       -7.4345592986        7.5616463280  MEMB      11              0.0000000000
      1494        17  POPC      C29            17.8309714908       -7.3056921490        5.5291295694  MEMB      11              0.0000000000
      1495        17  POPC      H91            18.8312034795       -7.7521065151        5.6303721731  MEMB      11              0.0000000000
      1496        17  POPC      C210           17.3033801623       -7.1672626343        4.3146740480  MEMB      11              0.0000000000
      1497        17  POPC      H101           17.8438010245       -7.6473401291        3.4855352756  MEMB      11              0.0000000000
      1498        17  POPC      C211           16.0059685628       -6.5370361617        3.8514829561  MEMB      11              0.0000000000
      1499        17  POPC      H11R           16.3767324219       -6.0885594253        2.9050568485  MEMB      11              0.0000000000
      1500        17  POPC      H11S           15.8358471124       -5.7104174543        4.5740342120  MEMB      11              0.0000000000
      1501        17  POPC      C212           14.6974000055       -7.3964908930        3.6001097212  MEMB      11              0.0000000000
      1502        17  POPC      H12R           14.8417264684       -8.4227468151        4.0004716104  MEMB      11              0.0000000000
      1503        17  POPC      H12S           14.5652506843       -7.6433874014        2.5249826337  MEMB      11              0.0000000000
      1504        17  POPC      C213           13.3621273442       -6.7080730513        4.2007872096  MEMB      11              0.0000000000
      1505        17  POPC      H13R           13.5346828318       -6.4175411779        5.2591527105  MEMB      11              0.0000000000
      1506        17  POPC      H13S           12.5850114902       -7.4711815057        3.9815224630  MEMB      11              0.0000000000
      1507        17  POPC      C214           13.0977287004       -5.3742035719        3.5371637738  MEMB      11              0.0000000000
      1508        17  POPC      H14R           13.0509700059       -5.4879323452        2.4329883594  MEMB      11              0.0000000000
      1509        17  POPC      H14S           13.8765253139       -4.7106624193        3.9701873255  MEMB      11              0.0000000000
      1510        17  POPC      C215           11.8102627040       -4.6573375264        4.0673588559  MEMB      11              0.0000000000
      1511        17  POPC      H15R           11.8735882543       -4.8312767105        5.1628296977  MEMB      11              0.0000000000
      1512        17  POPC      H15S           10.9056530488       -5.1260822025        3.6243231230  MEMB      11              0.0000000000
      1513        17  POPC      C216           11.7336228819       -3.1924341897        3.8905476838  MEMB      11              0.0000000000
      1514        17  POPC      H16R           12.5434408440       -2.7665213216        4.5207181697  MEMB      11              0.0000000000
      1515        17  POPC      H16S           10.7923453664       -2.8017496862        4.3329087204  MEMB      11              0.0000000000
      1516        17  POPC      C217           11.8522978880       -2.6626086933        2.4209755001  MEMB      11              0.0000000000
      1517        17  POPC      H17R           12.8879974765       -2.8724627011        2.0780357194  MEMB      11              0.0000000000
      1518        17  POPC      H17S           11.8026787793       -1.5528996449        2.4008531356  MEMB      11              0.0000000000
      1519        17  POPC      C218           10.9628006064       -3.3790884690        1.4167348109  MEMB      11              0.0000000000
      1520        17  POPC      H18R           10.9780879447       -4.4805877018        1.5609102995  MEMB      11              0.0000000000
      1521        17  POPC      H18S           11.2554964243       -3.1443954234        0.3709960613  MEMB      11              0.0000000000
      1522        17  POPC      H18T            9.9486322303       -2.9530285776        1.5724814002  MEMB      11              0.0000000000
      1523        17  POPC      C33            13.9838111024       -0.8188738722        9.3230922415  MEMB      11              0.0000000000
      1524        17  POPC      H3X            15.0900763977       -0.8258161443        9.2208682351  MEMB      11              0.0000000000
      1525        17  POPC      H3Y            13.6956101156        0.2220653346        9.5832977531  MEMB      11              0.0000000000
      1526        17  POPC      C34            13.3843212220       -1.1698265840        7.9455769226  MEMB      11              0.0000000000
      1527        17  POPC      H4X            13.4074309562       -0.2229039876        7.3649534561  MEMB      11              0.0000000000
      1528        17  POPC      H4Y            12.3198953980       -1.4246411450        8.1363351591  MEMB      11              0.0000000000
      1529        17  POPC      C35            14.0752291424       -2.3096204657        7.1018717609  MEMB      11              0.0000000000
      1530        17  POPC      H5X            13.3495618148       -2.6645595498        6.3391486204  MEMB      11              0.0000000000
      1531        17  POPC      H5Y            14.1804930299       -3.1727944746        7.7933706922  MEMB      11              0.0000000000
      1532        17  POPC      C36            15.3209068805       -1.6316433725        6.4563374414  MEMB      11              0.0000000000
      1533        17  POPC      H6X            16.0152183225       -1.4421854673        7.3027175518  MEMB      11              0.0000000000
      1534        17  POPC      H6Y            14.9439743674       -0.6608592267        6.0692699504  MEMB      11              0.0000000000
      1535        17  POPC      C37            16.0000838877       -2.4066083308        5.3021735407  MEMB      11              0.0000000000
      1536        17  POPC      H7X            15.3984726925       -2.1666171157        4.3995166061  MEMB      11              0.0000000000
      1537        17  POPC      H7Y            15.7892703408       -3.4755018054        5.5197632029  MEMB      11              0.0000000000
      1538        17  POPC      C38            17.5629275336       -2.2165985631        5.1199495810  MEMB      11              0.0000000000
      1539        17  POPC      H8X            18.0674275073       -2.5039297379        6.0671775882  MEMB      11              0.0000000000
      1540        17  POPC      H8Y            17.6361637096       -1.1109506435        5.0393255940  MEMB      11              0.0000000000
      1541        17  POPC      C39            18.1100813962       -2.9491394166        3.9284572271  MEMB      11              0.0000000000
      1542        17  POPC      H9X            17.7732652383       -3.9929017286        4.1057606162  MEMB      11              0.0000000000
      1543        17  POPC      H9Y            19.2181118175       -2.9739268889        4.0057532460  MEMB      11              0.0000000000
      1544        17  POPC      C310           17.6874729534       -2.5672932818        2.5161257513  MEMB      11              0.0000000000
      1545        17  POPC      H10X           18.1153017849       -1.5900583207        2.2058102838  MEMB      11              0.0000000000
      1546        17  POPC      H10Y           16.5824140656       -2.5740687724        2.4015857113  MEMB      11              0.0000000000
      1547        17  POPC      C311           17.9609517572       -3.6400195310        1.3903922198  MEMB      11              0.0000000000
      1548        17  POPC      H11X           17.5669456859       -4.6325885918        1.6968018650  MEMB      11              0.0000000000
      1549        17  POPC      H11Y           19.0583553729       -3.7155100492        1.2344198335  MEMB      11              0.0000000000
      1550        17  POPC      C312           17.3668048218       -3.1679981240       -0.0296269614  MEMB      11              0.0000000000
      1551        17  POPC      H12X           17.8743607748       -3.7352258117       -0.8389225990  MEMB      11              0.0000000000
      1552        17  POPC      H12Y           17.5981845913       -2.0919572929       -0.1810242541  MEMB      11              0.0000000000
      1553        17  POPC      C313           15.8905821827       -3.4630396792       -0.2351956836  MEMB      11              0.0000000000
      1554        17  POPC      H13X           15.2647938867       -2.8676651484        0.4635451144  MEMB      11              0.0000000000
      1555        17  POPC      H13Y           15.5493750227       -4.5076639146       -0.0719195445  MEMB      11              0.0000000000
      1556        17  POPC      C314           15.3366364348       -3.0255597334       -1.5638981513  MEMB      11              0.0000000000
      1557        17  POPC      H14X           15.8070371089       -3.6456187757       -2.3567214003  MEMB      11              0.0000000000
      1558        17  POPC      H14Y           15.6813961689       -2.0099661527       -1.8537797104  MEMB      11              0.0000000000
      1559        17  POPC      C315           13.8285096828       -3.0384119191       -1.5454775821  MEMB      11              0.0000000000
      1560        17  POPC      H15X           13.3575572532       -2.6564420506       -0.6145499884  MEMB      11              0.0000000000
      1561        17  POPC      H15Y           13.4848185845       -4.0912014031       -1.6339715851  MEMB      11              0.0000000000
      1562        17  POPC      C316           13.1163450213       -2.2024881198       -2.5715436330  MEMB      11              0.0000000000
      1563        17  POPC      H16X           12.0571862510       -2.1619317715       -2.2385880940  MEMB      11              0.0000000000
      1564        17  POPC      H16Y           13.2010503258       -2.6443455963       -3.5873728473  MEMB      11              0.0000000000
      1565        17  POPC      H16Z           13.4648769388       -1.1480596488       -2.6035946228  MEMB      11              0.0000000000
      1566        18  POPC      N              12.1732951273       12.0161669992       19.5880783452  MEMB      12              0.0000000000
      1567        18  POPC      C12            12.4744203141       13.4687292339       19.0476967093  MEMB      12              0.0000000000
      1568        18  POPC      H12A           12.7153876152       13.4232363287       17.9959053955  MEMB      12              0.0000000000
      1569        18  POPC      H12B           13.3220811326       13.8438803728       19.6018922194  MEMB      12              0.0000000000
      1570        18  POPC      C13            11.4648325010       11.9498751263       20.9190584702  MEMB      12              0.0000000000
      1571        18  POPC      H13A           11.3875849747       10.9506725169       21.3215844897  MEMB      12              0.0000000000
      1572        18  POPC      H13B           12.0010404725       12.5508445030       21.6385836973  MEMB      12              0.0000000000
      1573        18  POPC      H13C           10.5212705880       12.4455417277       20.7446863051  MEMB      12              0.0000000000
      1574        18  POPC      C14            11.5963597875       11.0820993103       18.4929045492  MEMB      12              0.0000000000
      1575        18  POPC      H14A           12.2506143022       11.2922123789       17.6597156831  MEMB      12              0.0000000000
      1576        18  POPC      H14B           11.6324830102       10.0312318714       18.7394255433  MEMB      12              0.0000000000
      1577        18  POPC      H14C           10.5854434466       11.4400643047       18.3651978671  MEMB      12              0.0000000000
      1578        18  POPC      C15            13.6235438991       11.4457724568       19.9051341617  MEMB      12              0.0000000000
      1579        18  POPC      H15A           14.2992480526       11.5300008689       19.0668446839  MEMB      12              0.0000000000
      1580        18  POPC      H15B           13.5490903111       10.4348676746       20.2778648540  MEMB      12              0.0000000000
      1581        18  POPC      H15C           14.0750146898       11.9275167663       20.7598251373  MEMB      12              0.0000000000
      1582        18  POPC      C11            11.3260957716       14.4941192272       19.1519103610  MEMB      12              0.0000000000
      1583        18  POPC      H11A           11.6474870637       15.3022610856       18.4605816361  MEMB      12              0.0000000000
      1584        18  POPC      H11B           11.2143978184       14.9221303348       20.1710526366  MEMB      12              0.0000000000
      1585        18  POPC      P               8.7469356186       14.5620723418       18.3957594320  MEMB      12              0.0000000000
      1586        18  POPC      O13             8.8635772903       15.8299384234       19.1798268865  MEMB      12              0.0000000000
      1587        18  POPC      O14             7.7215747283       13.5506953177       18.7915326567  MEMB      12              0.0000000000
      1588        18  POPC      O12            10.1097008075       13.7736296739       18.6601500454  MEMB      12              0.0000000000
      1589        18  POPC      O11             8.7691729852       14.8444131611       16.8679483825  MEMB      12              0.0000000000
      1590        18  POPC      C1              8.5731557366       16.1142744320       16.3219387735  MEMB      12              0.0000000000
      1591        18  POPC      HA              9.2929563279       16.2469209027       15.4861080472  MEMB      12              0.0000000000
      1592        18  POPC      HB              8.5933055413       16.9663901816       17.0345491117  MEMB      12              0.0000000000
      1593        18  POPC      C2              7.2001264143       16.0351135931       15.5536004235  MEMB      12              0.0000000000
      1594        18  POPC      HS              6.4188856396       15.4333428172       16.0653188634  MEMB      12              0.0000000000
      1595        18  POPC      O21             7.3821528414       15.2835503875       14.3301896524  MEMB      12              0.0000000000
      1596        18  POPC      C21             7.4460679570       13.9790670076       14.3202742705  MEMB      12              0.0000000000
      1597        18  POPC      O22             7.1050653557       13.3084729357       15.2863326066  MEMB      12              0.0000000000
      1598        18  POPC      C22             8.0023639885       13.4200285835       13.0580027063  MEMB      12              0.0000000000
      1599        18  POPC      H2R             7.1990928818       12.9257122949       12.4708671067  MEMB      12              0.0000000000
      1600        18  POPC      H2S             8.8072616464       12.7038370337       13.3291676238  MEMB      12              0.0000000000
      1601        18  POPC      C3              6.4967427575       17.3875489793       15.1649348583  MEMB      12              0.0000000000
      1602        18  POPC      HX              6.2170803360       17.8175662677       16.1504272155  MEMB      12              0.0000000000
      1603        18  POPC      HY              5.6100609678       17.3214608629       14.4987905197  MEMB      12              0.0000000000
      1604        18  POPC      O31             7.4606965107       18.2602876152       14.5169169498  MEMB      12              0.0000000000
      1605        18  POPC      C31             7.7265664292       18.2039371615       13.2443159292  MEMB      12              0.0000000000
      1606        18  POPC      O32             7.0615334284       17.6668224015       12.3467990146  MEMB      12              0.0000000000
      1607        18  POPC      C32             9.0468085492       18.9907133693       12.9858366373  MEMB      12              0.0000000000
      1608        18  POPC      H2X             9.7996946955       18.4371737934       13.5867334794  MEMB      12              0.0000000000
      1609        18  POPC      H2Y             8.9342324989       20.0492075419       13.3040145737  MEMB      12              0.0000000000
      1610        18  POPC      C23             8.5165446725       14.4804307484       12.0284441874  MEMB      12              0.0000000000
      1611        18  POPC      H3R             9.1497972652       15.2656995769       12.4939169219  MEMB      12              0.0000000000
      1612        18  POPC      H3S             7.7824282776       15.1498445479       11.5311722611  MEMB      12              0.0000000000
      1613        18  POPC      C24             9.2343078213       13.5549651579       11.0214448088  MEMB      12              0.0000000000
      1614        18  POPC      H4R             8.6351857832       12.6717978587       10.7125934247  MEMB      12              0.0000000000
      1615        18  POPC      H4S            10.0622937068       13.0449904690       11.5587399161  MEMB      12              0.0000000000
      1616        18  POPC      C25             9.8381976538       14.3902317298        9.8513759881  MEMB      12              0.0000000000
      1617        18  POPC      H5R            10.3979824414       13.7086125616        9.1758332929  MEMB      12              0.0000000000
      1618        18  POPC      H5S            10.6212829193       15.0289332246       10.3130665330  MEMB      12              0.0000000000
      1619        18  POPC      C26             8.7808463543       15.2558565502        9.0593375208  MEMB      12              0.0000000000
      1620        18  POPC      H6R             9.3416507331       15.7483414209        8.2363682551  MEMB      12              0.0000000000
      1621        18  POPC      H6S             8.3536886978       16.0114862482        9.7527932067  MEMB      12              0.0000000000
      1622        18  POPC      C27             7.6483689959       14.4971418974        8.4529891995  MEMB      12              0.0000000000
      1623        18  POPC      H7R             7.0806680251       14.0462559638        9.2948549056  MEMB      12              0.0000000000
      1624        18  POPC      H7S             8.0803073753       13.7975189189        7.7058089152  MEMB      12              0.0000000000
      1625        18  POPC      C28             6.6810727781       15.3830080554        7.6522803040  MEMB      12              0.0000000000
      1626        18  POPC      H8R             6.3383406947       16.2447386878        8.2640609784  MEMB      12              0.0000000000
      1627        18  POPC      H8S             5.7749140340       14.7404015447        7.6363405123  MEMB      12              0.0000000000
      1628        18  POPC      C29             7.1925169621       15.7425378108        6.2754125599  MEMB      12              0.0000000000
      1629        18  POPC      H91             8.1181500827       16.3048816939        6.0831297283  MEMB      12              0.0000000000
      1630        18  POPC      C210            6.5686813249       15.3720637641        5.1712827855  MEMB      12              0.0000000000
      1631        18  POPC      H101            6.9978753135       15.6816946418        4.2069584244  MEMB      12              0.0000000000
      1632        18  POPC      C211            5.3206792003       14.4952325308        5.0331820603  MEMB      12              0.0000000000
      1633        18  POPC      H11R            4.5153129411       15.1750015449        4.6815856363  MEMB      12              0.0000000000
      1634        18  POPC      H11S            4.9596525357       14.1413881449        6.0225126535  MEMB      12              0.0000000000
      1635        18  POPC      C212            5.5600386527       13.2510414246        4.2053797301  MEMB      12              0.0000000000
      1636        18  POPC      H12R            4.6505736618       12.6335473431        4.0444594857  MEMB      12              0.0000000000
      1637        18  POPC      H12S            6.3232542412       12.5660341442        4.6326834733  MEMB      12              0.0000000000
      1638        18  POPC      C213            6.0163887261       13.4918633894        2.7015120335  MEMB      12              0.0000000000
      1639        18  POPC      H13R            5.9888566280       12.4937490042        2.2143472609  MEMB      12              0.0000000000
      1640        18  POPC      H13S            7.0595420424       13.8719668132        2.7424227159  MEMB      12              0.0000000000
      1641        18  POPC      C214            5.1426319211       14.4314897451        1.9419480446  MEMB      12              0.0000000000
      1642        18  POPC      H14R            5.5030667235       15.4668193391        2.1222271202  MEMB      12              0.0000000000
      1643        18  POPC      H14S            4.1087487431       14.4261329712        2.3486146340  MEMB      12              0.0000000000
      1644        18  POPC      C215            5.1922776191       14.1165898089        0.4199369743  MEMB      12              0.0000000000
      1645        18  POPC      H15R            4.5953087664       13.1943449484        0.2543661494  MEMB      12              0.0000000000
      1646        18  POPC      H15S            6.2033253557       13.9176582592        0.0045700356  MEMB      12              0.0000000000
      1647        18  POPC      C216            4.5239449379       15.2617479644       -0.3317265192  MEMB      12              0.0000000000
      1648        18  POPC      H16R            4.6531514066       15.1229092986       -1.4264176177  MEMB      12              0.0000000000
      1649        18  POPC      H16S            5.1694079628       16.1559117642       -0.1969311740  MEMB      12              0.0000000000
      1650        18  POPC      C217            3.0371621691       15.6114893071       -0.0149443431  MEMB      12              0.0000000000
      1651        18  POPC      H17R            3.1086836844       16.1989815419        0.9252995239  MEMB      12              0.0000000000
      1652        18  POPC      H17S            2.4882758429       14.6608930802        0.1565528127  MEMB      12              0.0000000000
      1653        18  POPC      C218            2.2700463048       16.4931367609       -1.0038700633  MEMB      12              0.0000000000
      1654        18  POPC      H18R            2.7797100154       17.4671224593       -1.1648542502  MEMB      12              0.0000000000
      1655        18  POPC      H18S            1.4199426944       16.8293534200       -0.3725191412  MEMB      12              0.0000000000
      1656        18  POPC      H18T            2.1256183890       15.8475656432       -1.8964502740  MEMB      12              0.0000000000
      1657        18  POPC      C33             9.4692715261       18.9780433366       11.5488147739  MEMB      12              0.0000000000
      1658        18  POPC      H3X             8.6694078311       19.3022947927       10.8492429717  MEMB      12              0.0000000000
      1659        18  POPC      H3Y             9.7451048526       17.9259307826       11.3223273772  MEMB      12              0.0000000000
      1660        18  POPC      C34            10.7762301955       19.8012897584       11.2613459153  MEMB      12              0.0000000000
      1661        18  POPC      H4X            11.6029433233       19.4544018054       11.9174975763  MEMB      12              0.0000000000
      1662        18  POPC      H4Y            10.5371165806       20.8623827770       11.4876796186  MEMB      12              0.0000000000
      1663        18  POPC      C35            11.3045919674       19.6331735323        9.8315949353  MEMB      12              0.0000000000
      1664        18  POPC      H5X            12.2428157039       20.2268775193        9.8712539721  MEMB      12              0.0000000000
      1665        18  POPC      H5Y            10.5950481465       20.0666987449        9.0947601613  MEMB      12              0.0000000000
      1666        18  POPC      C36            11.7549330145       18.2159355357        9.3727084906  MEMB      12              0.0000000000
      1667        18  POPC      H6X            10.8667784113       17.5602098547        9.2481030631  MEMB      12              0.0000000000
      1668        18  POPC      H6Y            12.4616811071       17.7120340504       10.0661870299  MEMB      12              0.0000000000
      1669        18  POPC      C37            12.4826981423       18.2025762493        8.0337543046  MEMB      12              0.0000000000
      1670        18  POPC      H7X            13.5600172306       18.2919786967        8.2900989350  MEMB      12              0.0000000000
      1671        18  POPC      H7Y            12.3323554861       19.1072202237        7.4065882176  MEMB      12              0.0000000000
      1672        18  POPC      C38            12.1808744448       16.9171816325        7.1997138395  MEMB      12              0.0000000000
      1673        18  POPC      H8X            12.4296340880       17.0570012648        6.1259860790  MEMB      12              0.0000000000
      1674        18  POPC      H8Y            11.1124148057       16.6189323650        7.1383758273  MEMB      12              0.0000000000
      1675        18  POPC      C39            12.8001023792       15.6292743208        7.7822664213  MEMB      12              0.0000000000
      1676        18  POPC      H9X            12.4753362536       15.5283804238        8.8399371369  MEMB      12              0.0000000000
      1677        18  POPC      H9Y            13.8997594210       15.7305286237        7.6605182105  MEMB      12              0.0000000000
      1678        18  POPC      C310           12.3982769978       14.3100559147        7.1772089846  MEMB      12              0.0000000000
      1679        18  POPC      H10X           11.3067763372       14.1917340670        7.3473489136  MEMB      12              0.0000000000
      1680        18  POPC      H10Y           13.1651187147       13.6043971962        7.5623319299  MEMB      12              0.0000000000
      1681        18  POPC      C311           12.7061038023       14.2415199313        5.6979769912  MEMB      12              0.0000000000
      1682        18  POPC      H11X           13.5627151872       14.8172274629        5.2867605795  MEMB      12              0.0000000000
      1683        18  POPC      H11Y           11.9138524837       14.8568843183        5.2204986870  MEMB      12              0.0000000000
      1684        18  POPC      C312           12.5296662826       12.9342935820        4.9890155207  MEMB      12              0.0000000000
      1685        18  POPC      H12X           11.5736195817       12.5030664855        5.3555375763  MEMB      12              0.0000000000
      1686        18  POPC      H12Y           13.3231480618       12.2276851954        5.3136874490  MEMB      12              0.0000000000
      1687        18  POPC      C313           12.5218989768       12.8194860024        3.4581135547  MEMB      12              0.0000000000
      1688        18  POPC      H13X           12.4076654854       11.7335618623        3.2530771365  MEMB      12              0.0000000000
      1689        18  POPC      H13Y           13.5308439895       13.0797818914        3.0726321924  MEMB      12              0.0000000000
      1690        18  POPC      C314           11.3586800192       13.4337184737        2.7120905161  MEMB      12              0.0000000000
      1691        18  POPC      H14X           11.1109939637       14.3724901651        3.2521651175  MEMB      12              0.0000000000
      1692        18  POPC      H14Y           10.5421989779       12.6984483402        2.8765826223  MEMB      12              0.0000000000
      1693        18  POPC      C315           11.3172272614       13.5454534781        1.1958273857  MEMB      12              0.0000000000
      1694        18  POPC      H15X           10.2466615498       13.6990752341        0.9416421642  MEMB      12              0.0000000000
      1695        18  POPC      H15Y           11.4435486767       12.5295095883        0.7642937733  MEMB      12              0.0000000000
      1696        18  POPC      C316           12.2770815754       14.4956276281        0.4930913154  MEMB      12              0.0000000000
      1697        18  POPC      H16X           12.3381556302       15.5047634059        0.9537818880  MEMB      12              0.0000000000
      1698        18  POPC      H16Y           11.8456334418       14.7409141912       -0.5008946542  MEMB      12              0.0000000000
      1699        18  POPC      H16Z           13.2686019794       14.0601227658        0.2450111176  MEMB      12              0.0000000000
      1700        19  POPS      N               4.6756709601       16.8757602291       18.0981841247  MEMB      13              0.0000000000
      1701        19  POPS      HN1             5.0817648364       17.7289064717       17.6636391236  MEMB      13              0.0000000000
      1702        19  POPS      HN2             5.5749879551       16.3549472868       18.1379680603  MEMB      13              0.0000000000
      1703        19  POPS      HN3             3.8841226363       16.5098039501       17.5315031515  MEMB      13              0.0000000000
      1704        19  POPS      C12             4.0455726640       17.1690886715       19.4170030780  MEMB      13              0.0000000000
      1705        19  POPS      H12A            4.3469295685       18.1650437860       19.7062390650  MEMB      13              0.0000000000
      1706        19  POPS      C13             4.4553652037       16.2300015239       20.6021002344  MEMB      13              0.0000000000
      1707        19  POPS      O13A            5.3552528080       15.3457256544       20.4561736690  MEMB      13              0.0000000000
      1708        19  POPS      O13B            3.9142073855       16.3636528292       21.7112604865  MEMB      13              0.0000000000
      1709        19  POPS      C11             2.5408718936       17.0010567614       19.2360221420  MEMB      13              0.0000000000
      1710        19  POPS      H11A            2.0593082099       17.2520947184       20.2052472604  MEMB      13              0.0000000000
      1711        19  POPS      H11B            2.3907811109       15.9227136214       19.0147309349  MEMB      13              0.0000000000
      1712        19  POPS      P               0.4199100400       17.6533827433       17.9229153002  MEMB      13              0.0000000000
      1713        19  POPS      O13             0.0717763829       18.5533840969       16.7575509564  MEMB      13              0.0000000000
      1714        19  POPS      O14            -0.2566714722       17.9222744508       19.2364371504  MEMB      13              0.0000000000
      1715        19  POPS      O12             1.9864868013       17.7123795292       18.1152723501  MEMB      13              0.0000000000
      1716        19  POPS      O11             0.1118801999       16.1774294459       17.4470804553  MEMB      13              0.0000000000
      1717        19  POPS      C1              0.9813709954       15.6820531213       16.4017438296  MEMB      13              0.0000000000
      1718        19  POPS      HA              1.6341608652       14.9647836705       16.9436946064  MEMB      13              0.0000000000
      1719        19  POPS      HB              1.7222370981       16.3812959130       15.9584628270  MEMB      13              0.0000000000
      1720        19  POPS      C2              0.1925733898       14.9741592202       15.3534752670  MEMB      13              0.0000000000
      1721        19  POPS      HS             -0.3686661514       14.1537016081       15.8496407324  MEMB      13              0.0000000000
      1722        19  POPS      O21             1.0120700289       14.3430335340       14.3851288690  MEMB      13              0.0000000000
      1723        19  POPS      C21             1.5375724109       13.1964692289       14.7661372543  MEMB      13              0.0000000000
      1724        19  POPS      O22             1.3366329227       12.6548232028       15.8391842681  MEMB      13              0.0000000000
      1725        19  POPS      C22             2.4298194439       12.5306879939       13.6538322458  MEMB      13              0.0000000000
      1726        19  POPS      H2R             1.8296543681       11.9752464899       12.9017634277  MEMB      13              0.0000000000
      1727        19  POPS      H2S             3.0902524558       11.7780449253       14.1351605851  MEMB      13              0.0000000000
      1728        19  POPS      C3             -0.7880400610       15.9591462010       14.6732363141  MEMB      13              0.0000000000
      1729        19  POPS      HX             -1.5224496647       16.2523385744       15.4536223538  MEMB      13              0.0000000000
      1730        19  POPS      HY             -1.3050432178       15.3307702253       13.9168158163  MEMB      13              0.0000000000
      1731        19  POPS      O31            -0.2746448329       17.0628475160       14.0029293450  MEMB      13              0.0000000000
      1732        19  POPS      C31            -0.9095303179       18.2114141144       13.9693093286  MEMB      13              0.0000000000
      1733        19  POPS      O32            -2.0714111911       18.5029551772       14.3214321945  MEMB      13              0.0000000000
      1734        19  POPS      C32             0.0785753065       19.1129699547       13.2882777060  MEMB      13              0.0000000000
      1735        19  POPS      H2X             1.0818269364       18.6412163679       13.2157818517  MEMB      13              0.0000000000
      1736        19  POPS      H2Y             0.0949059055       20.0829476254       13.8297550405  MEMB      13              0.0000000000
      1737        19  POPS      C23             3.3946270548       13.5860364667       13.0459590147  MEMB      13              0.0000000000
      1738        19  POPS      H3R             4.2726446512       12.9682047623       12.7601451483  MEMB      13              0.0000000000
      1739        19  POPS      H3S             3.7010951849       14.4345558344       13.6943518015  MEMB      13              0.0000000000
      1740        19  POPS      C24             2.7244229887       14.1953993938       11.8187489694  MEMB      13              0.0000000000
      1741        19  POPS      H4R             1.9490755211       14.9162371257       12.1557216893  MEMB      13              0.0000000000
      1742        19  POPS      H4S             2.1959091008       13.4177289549       11.2269525073  MEMB      13              0.0000000000
      1743        19  POPS      C25             3.6437715853       14.8732364258       10.8052638864  MEMB      13              0.0000000000
      1744        19  POPS      H5R             4.6172798988       14.3860488178       10.5833387161  MEMB      13              0.0000000000
      1745        19  POPS      H5S             3.7751705143       15.8287609266       11.3566515380  MEMB      13              0.0000000000
      1746        19  POPS      C26             2.9667297520       15.1007044122        9.4559404328  MEMB      13              0.0000000000
      1747        19  POPS      H6R             2.3206835895       15.9980330192        9.5643225703  MEMB      13              0.0000000000
      1748        19  POPS      H6S             2.3437389731       14.2087639543        9.2308950375  MEMB      13              0.0000000000
      1749        19  POPS      C27             3.9834842039       15.2434803443        8.3878309374  MEMB      13              0.0000000000
      1750        19  POPS      H7R             4.6825826563       14.3962820952        8.2209854001  MEMB      13              0.0000000000
      1751        19  POPS      H7S             4.7686823732       15.9217371284        8.7850120436  MEMB      13              0.0000000000
      1752        19  POPS      C28             3.5347332015       15.7513266715        6.9939664584  MEMB      13              0.0000000000
      1753        19  POPS      H8R             2.8512607087       15.0765747285        6.4354905674  MEMB      13              0.0000000000
      1754        19  POPS      H8S             4.4239214574       15.7297329566        6.3282345314  MEMB      13              0.0000000000
      1755        19  POPS      C29             2.9083732301       17.1257561055        7.0368648794  MEMB      13              0.0000000000
      1756        19  POPS      H91             2.1597602212       17.1916051024        7.8401346854  MEMB      13              0.0000000000
      1757        19  POPS      C210            3.2782530298       18.2697710172        6.4139691221  MEMB      13              0.0000000000
      1758        19  POPS      H101            2.6721312724       19.1687017171        6.5998188611  MEMB      13              0.0000000000
      1759        19  POPS      C211            4.3783145987       18.5816976148        5.4501355392  MEMB      13              0.0000000000
      1760        19  POPS      H11R            4.7936269252       17.6625123906        4.9843729608  MEMB      13              0.0000000000
      1761        19  POPS      H11S            5.2157202834       19.0287754046        6.0273658928  MEMB      13              0.0000000000
      1762        19  POPS      C212            4.0392159675       19.5126760511        4.2966410482  MEMB      13              0.0000000000
      1763        19  POPS      H12R            5.0272279441       19.6656924939        3.8121418258  MEMB      13              0.0000000000
      1764        19  POPS      H12S            3.7626360972       20.5435662937        4.6050077197  MEMB      13              0.0000000000
      1765        19  POPS      C213            3.1128353382       18.9123404184        3.2613052560  MEMB      13              0.0000000000
      1766        19  POPS      H13R            3.4315180704       17.8646899900        3.0737131264  MEMB      13              0.0000000000
      1767        19  POPS      H13S            3.2219570566       19.4687611608        2.3058956225  MEMB      13              0.0000000000
      1768        19  POPS      C214            1.6247179529       19.0439716211        3.5114124928  MEMB      13              0.0000000000
      1769        19  POPS      H14R            1.3897003929       20.1239138249        3.6246055123  MEMB      13              0.0000000000
      1770        19  POPS      H14S            1.2311420358       18.4970031379        4.3947268501  MEMB      13              0.0000000000
      1771        19  POPS      C215            0.8137321626       18.5754840612        2.2573952657  MEMB      13              0.0000000000
      1772        19  POPS      H15R            0.9675467349       17.5074054814        1.9930656997  MEMB      13              0.0000000000
      1773        19  POPS      H15S            1.1401437969       19.1372456420        1.3561727968  MEMB      13              0.0000000000
      1774        19  POPS      C216           -0.7332994716       18.6989405693        2.3680802068  MEMB      13              0.0000000000
      1775        19  POPS      H16R           -1.0669408201       18.3796950774        3.3785683743  MEMB      13              0.0000000000
      1776        19  POPS      H16S           -1.2134693214       18.0212765582        1.6301584207  MEMB      13              0.0000000000
      1777        19  POPS      C217           -1.2941670797       20.1141688907        2.1519130682  MEMB      13              0.0000000000
      1778        19  POPS      H17R           -1.1466508716       20.6349193042        3.1221584947  MEMB      13              0.0000000000
      1779        19  POPS      H17S           -2.3943416459       19.9622145746        2.1810148560  MEMB      13              0.0000000000
      1780        19  POPS      C218           -1.0810791881       20.8878886017        0.8396005250  MEMB      13              0.0000000000
      1781        19  POPS      H18R           -1.8565806767       21.6831798004        0.8188614550  MEMB      13              0.0000000000
      1782        19  POPS      H18S           -1.1724793190       20.2209026210       -0.0441957428  MEMB      13              0.0000000000
      1783        19  POPS      H18T           -0.0567054940       21.3170269227        0.8682368714  MEMB      13              0.0000000000
      1784        19  POPS      C33            -0.3516132038       19.2152548553       11.8873660544  MEMB      13              0.0000000000
      1785        19  POPS      H3X             0.0897137615       20.1323818498       11.4419118438  MEMB      13              0.0000000000
      1786        19  POPS      H3Y            -1.4539109986       19.3436019382       11.8345663650  MEMB      13              0.0000000000
      1787        19  POPS      C34             0.0820461328       18.0507912657       10.9914998876  MEMB      13              0.0000000000
      1788        19  POPS      H4X            -0.3305379329       17.0906744599       11.3686885358  MEMB      13              0.0000000000
      1789        19  POPS      H4Y             1.1892975077       18.1160927652       11.0551512669  MEMB      13              0.0000000000
      1790        19  POPS      C35            -0.1945009107       18.2202286503        9.5004696498  MEMB      13              0.0000000000
      1791        19  POPS      H5X             0.6046190544       18.7598988946        8.9486680511  MEMB      13              0.0000000000
      1792        19  POPS      H5Y            -1.1455282551       18.7941270367        9.4779097038  MEMB      13              0.0000000000
      1793        19  POPS      C36            -0.5354432897       16.8678521706        8.7951841577  MEMB      13              0.0000000000
      1794        19  POPS      H6X            -1.2536835523       16.3193729206        9.4414212047  MEMB      13              0.0000000000
      1795        19  POPS      H6Y             0.3214486376       16.2185032707        8.5151784392  MEMB      13              0.0000000000
      1796        19  POPS      C37            -1.1049859994       17.2136909539        7.4700006222  MEMB      13              0.0000000000
      1797        19  POPS      H7X            -0.4475298153       17.9325947239        6.9359124949  MEMB      13              0.0000000000
      1798        19  POPS      H7Y            -2.0876231196       17.7198126893        7.5821892300  MEMB      13              0.0000000000
      1799        19  POPS      C38            -1.5519972367       16.0420058793        6.5352914416  MEMB      13              0.0000000000
      1800        19  POPS      H8X            -2.1418968605       16.6536365120        5.8195767041  MEMB      13              0.0000000000
      1801        19  POPS      H8Y            -2.2528873444       15.3323198404        7.0245966453  MEMB      13              0.0000000000
      1802        19  POPS      C39            -0.5443400209       15.1718958361        5.5958484825  MEMB      13              0.0000000000
      1803        19  POPS      H9X            -0.0078138807       14.4887784738        6.2885322622  MEMB      13              0.0000000000
      1804        19  POPS      H9Y             0.0923007510       16.0286731680        5.2877212163  MEMB      13              0.0000000000
      1805        19  POPS      C310           -1.2076345703       14.4371440968        4.4560459762  MEMB      13              0.0000000000
      1806        19  POPS      H10X           -1.3143113476       15.1719642206        3.6296194908  MEMB      13              0.0000000000
      1807        19  POPS      H10Y           -2.2084562137       14.0810545983        4.7814339362  MEMB      13              0.0000000000
      1808        19  POPS      C311           -0.4121756503       13.2106112243        3.9614886795  MEMB      13              0.0000000000
      1809        19  POPS      H11X           -1.0691971608       12.8050570745        3.1626341558  MEMB      13              0.0000000000
      1810        19  POPS      H11Y           -0.3317513678       12.4629134011        4.7792915033  MEMB      13              0.0000000000
      1811        19  POPS      C312            1.0511881427       13.4169670851        3.3118746853  MEMB      13              0.0000000000
      1812        19  POPS      H12X            1.2481091563       12.4836415496        2.7422717351  MEMB      13              0.0000000000
      1813        19  POPS      H12Y            1.7957713593       13.4313273694        4.1363207268  MEMB      13              0.0000000000
      1814        19  POPS      C313            1.1022659954       14.5500334901        2.3060688147  MEMB      13              0.0000000000
      1815        19  POPS      H13X            1.0338721207       15.5135578758        2.8549445681  MEMB      13              0.0000000000
      1816        19  POPS      H13Y            0.1853005866       14.4640551365        1.6846970172  MEMB      13              0.0000000000
      1817        19  POPS      C314            2.4317532517       14.5067017919        1.5900107974  MEMB      13              0.0000000000
      1818        19  POPS      H14X            2.6273146887       13.4855934723        1.1983286190  MEMB      13              0.0000000000
      1819        19  POPS      H14Y            3.2262300778       14.6641975353        2.3504874400  MEMB      13              0.0000000000
      1820        19  POPS      C315            2.6290349113       15.5315077599        0.4612604742  MEMB      13              0.0000000000
      1821        19  POPS      H15X            3.7048371675       15.4925989300        0.1865667866  MEMB      13              0.0000000000
      1822        19  POPS      H15Y            2.3422735315       16.5121147490        0.8977226828  MEMB      13              0.0000000000
      1823        19  POPS      C316            1.7221361179       15.3076118733       -0.8186739927  MEMB      13              0.0000000000
      1824        19  POPS      H16X            0.6540434042       15.4838480727       -0.5687950168  MEMB      13              0.0000000000
      1825        19  POPS      H16Y            1.7505324468       14.2139906812       -1.0123418753  MEMB      13              0.0000000000
      1826        19  POPS      H16Z            2.0393434970       15.9083302640       -1.6977856353  MEMB      13              0.0000000000
      1827        20  POPC      N               3.3813183534      -14.5667965383       19.1917063438  MEMB      14              0.0000000000
      1828        20  POPC      C12             4.4007708271      -14.8442195749       18.1302695512  MEMB      14              0.0000000000
      1829        20  POPC      H12A            5.3097685131      -14.3240295838       18.3939460214  MEMB      14              0.0000000000
      1830        20  POPC      H12B            3.9362436605      -14.4562290460       17.2357989246  MEMB      14              0.0000000000
      1831        20  POPC      C13             2.0906634669      -15.3556871812       18.8871936404  MEMB      14              0.0000000000
      1832        20  POPC      H13A            1.7012958292      -14.9613606469       17.9602096017  MEMB      14              0.0000000000
      1833        20  POPC      H13B            2.3314885869      -16.3932916245       18.7089230589  MEMB      14              0.0000000000
      1834        20  POPC      H13C            1.4323171060      -15.2854176638       19.7404476142  MEMB      14              0.0000000000
      1835        20  POPC      C14             3.8560582625      -15.0674701657       20.5327955438  MEMB      14              0.0000000000
      1836        20  POPC      H14A            3.7794157215      -16.1408881081       20.6238984190  MEMB      14              0.0000000000
      1837        20  POPC      H14B            4.8543251521      -14.7453168602       20.7898569928  MEMB      14              0.0000000000
      1838        20  POPC      H14C            3.2087404161      -14.5700644129       21.2398790277  MEMB      14              0.0000000000
      1839        20  POPC      C15             3.1090246902      -13.0959353414       19.2889643634  MEMB      14              0.0000000000
      1840        20  POPC      H15A            2.3713015088      -12.7747138620       20.0093680517  MEMB      14              0.0000000000
      1841        20  POPC      H15B            2.7664446060      -12.8060699365       18.3066116491  MEMB      14              0.0000000000
      1842        20  POPC      H15C            4.0429875564      -12.5746213275       19.4384478821  MEMB      14              0.0000000000
      1843        20  POPC      C11             4.8371617929      -16.3023606228       17.8125021524  MEMB      14              0.0000000000
      1844        20  POPC      H11A            5.6462370127      -16.2108576071       17.0566281755  MEMB      14              0.0000000000
      1845        20  POPC      H11B            4.0041964634      -16.7578504653       17.2354243699  MEMB      14              0.0000000000
      1846        20  POPC      P               4.9043259122      -18.6511595941       19.0786761856  MEMB      14              0.0000000000
      1847        20  POPC      O13             3.7225732301      -19.1281277684       18.3489015362  MEMB      14              0.0000000000
      1848        20  POPC      O14             5.0058647618      -19.1217488216       20.4847200911  MEMB      14              0.0000000000
      1849        20  POPC      O12             5.1873516512      -17.1141485241       18.9472677524  MEMB      14              0.0000000000
      1850        20  POPC      O11             6.1367861095      -19.2984894736       18.2970027988  MEMB      14              0.0000000000
      1851        20  POPC      C1              7.4829730735      -19.2039098381       18.8531002561  MEMB      14              0.0000000000
      1852        20  POPC      HA              7.5825969022      -20.1550304800       19.4185786048  MEMB      14              0.0000000000
      1853        20  POPC      HB              7.5434336348      -18.4562662062       19.6726700088  MEMB      14              0.0000000000
      1854        20  POPC      C2              8.5292691532      -18.7898565465       17.8323688832  MEMB      14              0.0000000000
      1855        20  POPC      HS              9.5578882287      -18.5792431648       18.1955564582  MEMB      14              0.0000000000
      1856        20  POPC      O21             7.9657099320      -17.6198457906       17.2481941744  MEMB      14              0.0000000000
      1857        20  POPC      C21             8.8885110151      -16.7792704079       16.8158779145  MEMB      14              0.0000000000
      1858        20  POPC      O22            10.1027017897      -16.7980653757       16.9345012859  MEMB      14              0.0000000000
      1859        20  POPC      C22             8.2297906337      -15.5854367124       16.1053140974  MEMB      14              0.0000000000
      1860        20  POPC      H2R             8.8848643063      -14.7237693231       15.8548564390  MEMB      14              0.0000000000
      1861        20  POPC      H2S             7.4712114035      -15.1104291871       16.7635283732  MEMB      14              0.0000000000
      1862        20  POPC      C3              8.8038598163      -19.7892330430       16.6352183256  MEMB      14              0.0000000000
      1863        20  POPC      HX              9.2749374960      -20.6916132943       17.0803218391  MEMB      14              0.0000000000
      1864        20  POPC      HY              9.5116643987      -19.2314203232       15.9854652386  MEMB      14              0.0000000000
      1865        20  POPC      O31             7.5962487960      -20.2976265415       15.9529470841  MEMB      14              0.0000000000
      1866        20  POPC      C31             7.4561105627      -19.7766940512       14.7262478152  MEMB      14              0.0000000000
      1867        20  POPC      O32             8.2198250297      -19.0442395011       14.1227634381  MEMB      14              0.0000000000
      1868        20  POPC      C32             6.0259931656      -20.0957485034       14.2456618458  MEMB      14              0.0000000000
      1869        20  POPC      H2X             5.2066274518      -19.7945690330       14.9328675021  MEMB      14              0.0000000000
      1870        20  POPC      H2Y             5.9420428565      -21.2023370355       14.1933604991  MEMB      14              0.0000000000
      1871        20  POPC      C23             7.6312596442      -16.1083599493       14.8058313180  MEMB      14              0.0000000000
      1872        20  POPC      H3R             6.9616172679      -16.9617599223       15.0458491544  MEMB      14              0.0000000000
      1873        20  POPC      H3S             8.3800571308      -16.5589622713       14.1198426339  MEMB      14              0.0000000000
      1874        20  POPC      C24             6.9510105202      -14.9631847700       14.0900711305  MEMB      14              0.0000000000
      1875        20  POPC      H4R             7.5656500869      -14.0378912057       14.1093406797  MEMB      14              0.0000000000
      1876        20  POPC      H4S             6.0324025425      -14.7972498284       14.6925209716  MEMB      14              0.0000000000
      1877        20  POPC      C25             6.5821107846      -15.3120224569       12.5752330229  MEMB      14              0.0000000000
      1878        20  POPC      H5R             5.8040988487      -16.1038717377       12.5305873096  MEMB      14              0.0000000000
      1879        20  POPC      H5S             7.4748072459      -15.6031302665       11.9813729722  MEMB      14              0.0000000000
      1880        20  POPC      C26             6.0186176163      -14.0745992790       11.8017405308  MEMB      14              0.0000000000
      1881        20  POPC      H6R             6.8147072849      -13.3003071173       11.8338935600  MEMB      14              0.0000000000
      1882        20  POPC      H6S             5.0743853793      -13.6770740617       12.2315317873  MEMB      14              0.0000000000
      1883        20  POPC      C27             5.7663798170      -14.4826847555       10.4149974154  MEMB      14              0.0000000000
      1884        20  POPC      H7R             4.8855237224      -15.1587139815       10.4523858433  MEMB      14              0.0000000000
      1885        20  POPC      H7S             6.6311710790      -14.9761590289        9.9221083637  MEMB      14              0.0000000000
      1886        20  POPC      C28             5.2667599776      -13.3097254558        9.5899790325  MEMB      14              0.0000000000
      1887        20  POPC      H8R             4.6119387976      -12.5802965650       10.1129162842  MEMB      14              0.0000000000
      1888        20  POPC      H8S             4.6519571560      -13.8314836142        8.8257095880  MEMB      14              0.0000000000
      1889        20  POPC      C29             6.3587209297      -12.4583932705        8.8933421475  MEMB      14              0.0000000000
      1890        20  POPC      H91             7.0323705083      -11.9259419357        9.5808684404  MEMB      14              0.0000000000
      1891        20  POPC      C210            6.5313605662      -12.3412636693        7.5399728474  MEMB      14              0.0000000000
      1892        20  POPC      H101            7.3253186880      -11.6360884734        7.2529915398  MEMB      14              0.0000000000
      1893        20  POPC      C211            5.7716984110      -12.9668863892        6.3764551713  MEMB      14              0.0000000000
      1894        20  POPC      H11R            5.0454405930      -12.2437307088        5.9476007817  MEMB      14              0.0000000000
      1895        20  POPC      H11S            5.1624941280      -13.8486643199        6.6691307460  MEMB      14              0.0000000000
      1896        20  POPC      C212            6.7017571082      -13.4998746027        5.1486153106  MEMB      14              0.0000000000
      1897        20  POPC      H12R            7.4700210612      -12.7039621657        5.0455877469  MEMB      14              0.0000000000
      1898        20  POPC      H12S            5.9976121256      -13.4971994950        4.2892593575  MEMB      14              0.0000000000
      1899        20  POPC      C213            7.4193648795      -14.8328846550        5.3368825548  MEMB      14              0.0000000000
      1900        20  POPC      H13R            6.7140026963      -15.3686936581        6.0074752472  MEMB      14              0.0000000000
      1901        20  POPC      H13S            8.3646746365      -14.7024497515        5.9058265207  MEMB      14              0.0000000000
      1902        20  POPC      C214            7.8136440042      -15.5916404352        4.0803821713  MEMB      14              0.0000000000
      1903        20  POPC      H14R            6.9134966694      -16.0841690845        3.6543877267  MEMB      14              0.0000000000
      1904        20  POPC      H14S            8.6144264490      -16.3304320130        4.2977660103  MEMB      14              0.0000000000
      1905        20  POPC      C215            8.3707747596      -14.7107452670        2.9165709180  MEMB      14              0.0000000000
      1906        20  POPC      H15R            9.3161417945      -14.2807954835        3.3112169111  MEMB      14              0.0000000000
      1907        20  POPC      H15S            7.5711898470      -13.9797651772        2.6702928290  MEMB      14              0.0000000000
      1908        20  POPC      C216            8.6074623586      -15.6990006678        1.7022950766  MEMB      14              0.0000000000
      1909        20  POPC      H16R            7.8247742115      -16.4607866220        1.9057707074  MEMB      14              0.0000000000
      1910        20  POPC      H16S            9.5749074956      -16.2175787259        1.8738990332  MEMB      14              0.0000000000
      1911        20  POPC      C217            8.4378192293      -15.0756176719        0.3213423568  MEMB      14              0.0000000000
      1912        20  POPC      H17R            9.2939837664      -14.3752309859        0.2176027837  MEMB      14              0.0000000000
      1913        20  POPC      H17S            7.4697440245      -14.5571053946        0.1531273024  MEMB      14              0.0000000000
      1914        20  POPC      C218            8.5118502092      -16.1695801521       -0.7089653400  MEMB      14              0.0000000000
      1915        20  POPC      H18R            9.4968711705      -16.6756403940       -0.6197614351  MEMB      14              0.0000000000
      1916        20  POPC      H18S            8.5009337743      -15.6164254590       -1.6724066135  MEMB      14              0.0000000000
      1917        20  POPC      H18T            7.6829244324      -16.8760143322       -0.4895256692  MEMB      14              0.0000000000
      1918        20  POPC      C33             5.7540464417      -19.5753168308       12.8488008031  MEMB      14              0.0000000000
      1919        20  POPC      H3X             6.6554717923      -19.6914519953       12.2098437593  MEMB      14              0.0000000000
      1920        20  POPC      H3Y             5.4298407737      -18.5216980304       12.9870001516  MEMB      14              0.0000000000
      1921        20  POPC      C34             4.4887873116      -20.2476394248       12.1569696412  MEMB      14              0.0000000000
      1922        20  POPC      H4X             3.7063402983      -20.2596115810       12.9456104772  MEMB      14              0.0000000000
      1923        20  POPC      H4Y             4.7335864424      -21.2760113236       11.8151417407  MEMB      14              0.0000000000
      1924        20  POPC      C35             4.1019081474      -19.4757117308       10.9643526984  MEMB      14              0.0000000000
      1925        20  POPC      H5X             4.9922196560      -19.3022783865       10.3228016915  MEMB      14              0.0000000000
      1926        20  POPC      H5Y             3.6298089580      -18.5270601358       11.2982744933  MEMB      14              0.0000000000
      1927        20  POPC      C36             3.2241690508      -20.3085446114        9.9980709863  MEMB      14              0.0000000000
      1928        20  POPC      H6X             2.4412294584      -20.6684568205       10.6993475427  MEMB      14              0.0000000000
      1929        20  POPC      H6Y             3.8310788700      -21.1866703460        9.6900505514  MEMB      14              0.0000000000
      1930        20  POPC      C37             2.7506778188      -19.5630627879        8.8168020957  MEMB      14              0.0000000000
      1931        20  POPC      H7X             1.9343997992      -18.9030416507        9.1806478449  MEMB      14              0.0000000000
      1932        20  POPC      H7Y             2.2922917068      -20.1997416899        8.0301365434  MEMB      14              0.0000000000
      1933        20  POPC      C38             3.8804461978      -18.6388637502        8.0915182247  MEMB      14              0.0000000000
      1934        20  POPC      H8X             4.8659620728      -19.1241634351        8.2575413968  MEMB      14              0.0000000000
      1935        20  POPC      H8Y             3.8198255693      -17.6996913358        8.6819433260  MEMB      14              0.0000000000
      1936        20  POPC      C39             3.5545623547      -18.2023181468        6.6561587131  MEMB      14              0.0000000000
      1937        20  POPC      H9X             4.0675895083      -17.2394398852        6.4464215440  MEMB      14              0.0000000000
      1938        20  POPC      H9Y             2.4788033880      -17.9302786548        6.6008554120  MEMB      14              0.0000000000
      1939        20  POPC      C310            3.9065043278      -19.1677394658        5.5306109171  MEMB      14              0.0000000000
      1940        20  POPC      H10X            3.5776392999      -18.6044343660        4.6312470237  MEMB      14              0.0000000000
      1941        20  POPC      H10Y            3.2628385250      -20.0518948269        5.7262759289  MEMB      14              0.0000000000
      1942        20  POPC      C311            5.4061974494      -19.4389647036        5.3338047296  MEMB      14              0.0000000000
      1943        20  POPC      H11X            5.8192558306      -19.9663405854        6.2201335585  MEMB      14              0.0000000000
      1944        20  POPC      H11Y            6.0200597392      -18.5443569475        5.0946993985  MEMB      14              0.0000000000
      1945        20  POPC      C312            5.7064617551      -20.4800178049        4.1630170578  MEMB      14              0.0000000000
      1946        20  POPC      H12X            4.8262305504      -21.1101867715        3.9132147163  MEMB      14              0.0000000000
      1947        20  POPC      H12Y            6.4604487377      -21.1200400612        4.6691750842  MEMB      14              0.0000000000
      1948        20  POPC      C313            6.2707189380      -19.8357505723        2.8853039130  MEMB      14              0.0000000000
      1949        20  POPC      H13X            6.4219472226      -20.6606284615        2.1565885160  MEMB      14              0.0000000000
      1950        20  POPC      H13Y            7.2744705096      -19.3952376977        3.0662801645  MEMB      14              0.0000000000
      1951        20  POPC      C314            5.2881932792      -18.7439287232        2.3301085508  MEMB      14              0.0000000000
      1952        20  POPC      H14X            5.4060307354      -17.7644651729        2.8410738890  MEMB      14              0.0000000000
      1953        20  POPC      H14Y            4.2620449574      -19.1313857168        2.5067916425  MEMB      14              0.0000000000
      1954        20  POPC      C315            5.4620568836      -18.4716463794        0.8560831476  MEMB      14              0.0000000000
      1955        20  POPC      H15X            5.3238243854      -19.3579653441        0.2006041881  MEMB      14              0.0000000000
      1956        20  POPC      H15Y            6.5141671389      -18.1226910713        0.7811445590  MEMB      14              0.0000000000
      1957        20  POPC      C316            4.6298890327      -17.3789603079        0.3117822833  MEMB      14              0.0000000000
      1958        20  POPC      H16X            4.8805825056      -17.2678756687       -0.7648484015  MEMB      14              0.0000000000
      1959        20  POPC      H16Y            4.8913980068      -16.4299108677        0.8267967475  MEMB      14              0.0000000000
      1960        20  POPC      H16Z            3.5440182207      -17.5688119552        0.4502098594  MEMB      14              0.0000000000
      1961        21  POPC      N             -12.3154144885       -8.2814389937       18.0581155355  MEMB      15              0.0000000000
      1962        21  POPC      C12           -11.2749278555       -9.2869353377       18.2210589836  MEMB      15              0.0000000000
      1963        21  POPC      H12A          -10.3533828806       -8.7395320108       18.3533628907  MEMB      15              0.0000000000
      1964        21  POPC      H12B          -11.2134927625       -9.9273766336       17.3536141046  MEMB      15              0.0000000000
      1965        21  POPC      C13           -13.5441812312       -8.9484439626       17.4340947392  MEMB      15              0.0000000000
      1966        21  POPC      H13A          -13.1950238122       -9.4898804079       16.5672985314  MEMB      15              0.0000000000
      1967        21  POPC      H13B          -13.9845619536       -9.6603527961       18.1164808854  MEMB      15              0.0000000000
      1968        21  POPC      H13C          -14.3213136305       -8.2685396772       17.1175576158  MEMB      15              0.0000000000
      1969        21  POPC      C14           -12.6433146313       -7.5279012902       19.3029673391  MEMB      15              0.0000000000
      1970        21  POPC      H14A          -13.0006844058       -8.2430383384       20.0290980805  MEMB      15              0.0000000000
      1971        21  POPC      H14B          -11.7920961799       -7.1464976771       19.8473552826  MEMB      15              0.0000000000
      1972        21  POPC      H14C          -13.4230791598       -6.7871147591       19.2049740083  MEMB      15              0.0000000000
      1973        21  POPC      C15           -11.7085526728       -7.3213181475       17.0507635659  MEMB      15              0.0000000000
      1974        21  POPC      H15A          -12.2400457642       -6.3895420962       17.1760971332  MEMB      15              0.0000000000
      1975        21  POPC      H15B          -11.8220390437       -7.6897400632       16.0419097124  MEMB      15              0.0000000000
      1976        21  POPC      H15C          -10.6618094671       -7.2666061545       17.3110237295  MEMB      15              0.0000000000
      1977        21  POPC      C11           -11.4496603983      -10.3654158499       19.3952919491  MEMB      15              0.0000000000
      1978        21  POPC      H11A          -11.7196815249       -9.8469986285       20.3400951914  MEMB      15              0.0000000000
      1979        21  POPC      H11B          -10.4900281726      -10.8439857746       19.6858052156  MEMB      15              0.0000000000
      1980        21  POPC      P             -12.8952423190      -12.5348987036       19.9888822777  MEMB      15              0.0000000000
      1981        21  POPC      O13           -13.8477822179      -12.2626408834       21.1329137456  MEMB      15              0.0000000000
      1982        21  POPC      O14           -11.6205717118      -13.1330267277       20.4782563752  MEMB      15              0.0000000000
      1983        21  POPC      O12           -12.5367203582      -11.3019975437       19.0520760674  MEMB      15              0.0000000000
      1984        21  POPC      O11           -13.4690465027      -13.5781938101       18.8855794014  MEMB      15              0.0000000000
      1985        21  POPC      C1            -14.5456286357      -13.2298779885       17.9776352234  MEMB      15              0.0000000000
      1986        21  POPC      HA            -14.5437849677      -12.1282737215       17.8334630403  MEMB      15              0.0000000000
      1987        21  POPC      HB            -15.5587623275      -13.4977259031       18.3466049146  MEMB      15              0.0000000000
      1988        21  POPC      C2            -14.1862400887      -13.8969146891       16.6511582815  MEMB      15              0.0000000000
      1989        21  POPC      HS            -13.7181121290      -14.8951253675       16.7880996765  MEMB      15              0.0000000000
      1990        21  POPC      O21           -13.3324955942      -12.8995003986       15.8403763821  MEMB      15              0.0000000000
      1991        21  POPC      C21           -12.7122340562      -13.3864575191       14.7942332088  MEMB      15              0.0000000000
      1992        21  POPC      O22           -12.5067650494      -14.5691324545       14.5494480247  MEMB      15              0.0000000000
      1993        21  POPC      C22           -12.2944857920      -12.2898104764       13.7244878394  MEMB      15              0.0000000000
      1994        21  POPC      H2R           -11.2794017168      -11.8738329349       13.9002374906  MEMB      15              0.0000000000
      1995        21  POPC      H2S           -12.9839179365      -11.4367234869       13.9012557313  MEMB      15              0.0000000000
      1996        21  POPC      C3            -15.4359267163      -14.2258303256       15.8605271823  MEMB      15              0.0000000000
      1997        21  POPC      HX            -16.0989267799      -14.9565200912       16.3712562364  MEMB      15              0.0000000000
      1998        21  POPC      HY            -15.1493859491      -14.7541531993       14.9261342011  MEMB      15              0.0000000000
      1999        21  POPC      O31           -16.1054564325      -12.9943303995       15.5178114877  MEMB      15              0.0000000000
      2000        21  POPC      C31           -16.7005965317      -12.8312334312       14.3393595425  MEMB      15              0.0000000000
      2001        21  POPC      O32           -16.7631896033      -13.6796910966       13.4704956030  MEMB      15              0.0000000000
      2002        21  POPC      C32           -17.1706270180      -11.3861388413       14.3101867974  MEMB      15              0.0000000000
      2003        21  POPC      H2X           -17.3767197623      -11.0249719740       15.3404318781  MEMB      15              0.0000000000
      2004        21  POPC      H2Y           -18.1114484104      -11.3089746621       13.7243356515  MEMB      15              0.0000000000
      2005        21  POPC      C23           -12.4524621588      -12.9143898863       12.3527853430  MEMB      15              0.0000000000
      2006        21  POPC      H3R           -11.8247086013      -13.8236785459       12.2368525314  MEMB      15              0.0000000000
      2007        21  POPC      H3S           -12.0072120215      -12.2143520121       11.6138535556  MEMB      15              0.0000000000
      2008        21  POPC      C24           -13.9270497332      -13.2481726266       11.9422703572  MEMB      15              0.0000000000
      2009        21  POPC      H4R           -14.5179288974      -12.3246334259       11.7626648660  MEMB      15              0.0000000000
      2010        21  POPC      H4S           -14.2717243272      -13.8049962720       12.8397487068  MEMB      15              0.0000000000
      2011        21  POPC      C25           -14.0759459608      -14.1370802960       10.6856993831  MEMB      15              0.0000000000
      2012        21  POPC      H5R           -13.5631540624      -15.0720315345       10.9975192217  MEMB      15              0.0000000000
      2013        21  POPC      H5S           -13.5171390529      -13.6593049802        9.8527603426  MEMB      15              0.0000000000
      2014        21  POPC      C26           -15.4323380288      -14.5760470640       10.2320225862  MEMB      15              0.0000000000
      2015        21  POPC      H6R           -15.8495464010      -14.8710943440       11.2185341963  MEMB      15              0.0000000000
      2016        21  POPC      H6S           -15.2975851254      -15.5081074944        9.6425945883  MEMB      15              0.0000000000
      2017        21  POPC      C27           -16.1245514847      -13.4925854456        9.4456850454  MEMB      15              0.0000000000
      2018        21  POPC      H7R           -16.1894495707      -12.5663858787       10.0558193959  MEMB      15              0.0000000000
      2019        21  POPC      H7S           -17.2061613461      -13.7443178335        9.4784290365  MEMB      15              0.0000000000
      2020        21  POPC      C28           -15.6927613857      -13.3229002586        7.9574914360  MEMB      15              0.0000000000
      2021        21  POPC      H8R           -14.6104835962      -13.0779158142        8.0120686872  MEMB      15              0.0000000000
      2022        21  POPC      H8S           -16.2307331482      -12.4538785495        7.5219357010  MEMB      15              0.0000000000
      2023        21  POPC      C29           -15.9036965943      -14.5153449006        7.0538487542  MEMB      15              0.0000000000
      2024        21  POPC      H91           -16.8419962281      -14.3074949723        6.5186927753  MEMB      15              0.0000000000
      2025        21  POPC      C210          -15.0321430006      -15.5104644866        6.7398488668  MEMB      15              0.0000000000
      2026        21  POPC      H101          -15.4286150991      -16.3677683065        6.1760763790  MEMB      15              0.0000000000
      2027        21  POPC      C211          -13.6385668650      -15.7137393131        7.1964033077  MEMB      15              0.0000000000
      2028        21  POPC      H11R          -13.4113031988      -16.7901087827        7.3516490941  MEMB      15              0.0000000000
      2029        21  POPC      H11S          -13.4723313601      -15.2136232474        8.1744479201  MEMB      15              0.0000000000
      2030        21  POPC      C212          -12.5729413551      -15.1855241211        6.2005441264  MEMB      15              0.0000000000
      2031        21  POPC      H12R          -11.6332790180      -14.8441574397        6.6851311944  MEMB      15              0.0000000000
      2032        21  POPC      H12S          -12.8327154378      -14.1999141363        5.7584906942  MEMB      15              0.0000000000
      2033        21  POPC      C213          -12.2324603724      -16.2381410297        5.2105472598  MEMB      15              0.0000000000
      2034        21  POPC      H13R          -13.1368699050      -16.8729197128        5.0946999125  MEMB      15              0.0000000000
      2035        21  POPC      H13S          -11.2876780625      -16.7605881885        5.4727616458  MEMB      15              0.0000000000
      2036        21  POPC      C214          -12.0007603379      -15.5861370780        3.8607702740  MEMB      15              0.0000000000
      2037        21  POPC      H14R          -12.8602062047      -14.9417290557        3.5772002642  MEMB      15              0.0000000000
      2038        21  POPC      H14S          -11.9572322502      -16.3777679291        3.0824726129  MEMB      15              0.0000000000
      2039        21  POPC      C215          -10.8299952516      -14.5545772993        3.6442477080  MEMB      15              0.0000000000
      2040        21  POPC      H15R           -9.9907956447      -15.1524909335        3.2288400693  MEMB      15              0.0000000000
      2041        21  POPC      H15S          -10.5347526938      -14.1200343574        4.6231881717  MEMB      15              0.0000000000
      2042        21  POPC      C216          -11.1241036718      -13.3586879779        2.6772246348  MEMB      15              0.0000000000
      2043        21  POPC      H16R          -12.1926973111      -13.0844511659        2.8084604466  MEMB      15              0.0000000000
      2044        21  POPC      H16S          -11.1193414913      -13.8836523823        1.6980864754  MEMB      15              0.0000000000
      2045        21  POPC      C217          -10.1931378632      -12.0828432526        2.7168690077  MEMB      15              0.0000000000
      2046        21  POPC      H17R          -10.3965899501      -11.5127486320        3.6484911602  MEMB      15              0.0000000000
      2047        21  POPC      H17S          -10.4601237991      -11.3706539167        1.9070374670  MEMB      15              0.0000000000
      2048        21  POPC      C218           -8.7261503733      -12.3853513501        2.5034449432  MEMB      15              0.0000000000
      2049        21  POPC      H18R           -8.3080756389      -12.5000435865        3.5263724377  MEMB      15              0.0000000000
      2050        21  POPC      H18S           -8.2146746328      -11.5032492234        2.0622997666  MEMB      15              0.0000000000
      2051        21  POPC      H18T           -8.4627034698      -13.3155126977        1.9559815631  MEMB      15              0.0000000000
      2052        21  POPC      C33           -16.1276329384      -10.4112479728       13.7589471188  MEMB      15              0.0000000000
      2053        21  POPC      H3X           -16.3095613221      -10.5116414282       12.6675516701  MEMB      15              0.0000000000
      2054        21  POPC      H3Y           -15.0995294073      -10.6507980424       14.1052704869  MEMB      15              0.0000000000
      2055        21  POPC      C34           -16.2921442344       -8.9362687120       14.1450386145  MEMB      15              0.0000000000
      2056        21  POPC      H4X           -15.8493639087       -8.8551454465       15.1607576980  MEMB      15              0.0000000000
      2057        21  POPC      H4Y           -17.3926522665       -8.7846034239       14.1308737281  MEMB      15              0.0000000000
      2058        21  POPC      C35           -15.6451644954       -8.0594817145       13.1308995007  MEMB      15              0.0000000000
      2059        21  POPC      H5X           -15.9088150147       -6.9966353631       13.3184281704  MEMB      15              0.0000000000
      2060        21  POPC      H5Y           -16.0985324382       -8.2371263808       12.1322901409  MEMB      15              0.0000000000
      2061        21  POPC      C36           -14.1513122560       -8.1765504777       13.0370483175  MEMB      15              0.0000000000
      2062        21  POPC      H6X           -13.8565184437       -9.2058443776       13.3336486331  MEMB      15              0.0000000000
      2063        21  POPC      H6Y           -13.7175471475       -7.5426137722       13.8397273399  MEMB      15              0.0000000000
      2064        21  POPC      C37           -13.6709228418       -7.9082016482       11.5880616130  MEMB      15              0.0000000000
      2065        21  POPC      H7X           -12.5621704108       -7.8497460202       11.5484147695  MEMB      15              0.0000000000
      2066        21  POPC      H7Y           -14.0682821340       -6.9081940371       11.3116364222  MEMB      15              0.0000000000
      2067        21  POPC      C38           -14.1419350321       -8.9168532295       10.5435534834  MEMB      15              0.0000000000
      2068        21  POPC      H8X           -15.2173651170       -8.7615556045       10.3119212204  MEMB      15              0.0000000000
      2069        21  POPC      H8Y           -13.9305966960       -9.9210506995       10.9692818233  MEMB      15              0.0000000000
      2070        21  POPC      C39           -13.4259222628       -8.7677291327        9.1662337082  MEMB      15              0.0000000000
      2071        21  POPC      H9X           -12.3874043224       -9.1580605527        9.2249085955  MEMB      15              0.0000000000
      2072        21  POPC      H9Y           -13.3665935883       -7.7002666532        8.8640326789  MEMB      15              0.0000000000
      2073        21  POPC      C310          -14.2372240642       -9.5246034114        8.0579719983  MEMB      15              0.0000000000
      2074        21  POPC      H10X          -15.1514315086       -8.9054821246        7.9345439917  MEMB      15              0.0000000000
      2075        21  POPC      H10Y          -14.6423517934      -10.4791456197        8.4567724830  MEMB      15              0.0000000000
      2076        21  POPC      C311          -13.3236500788       -9.7694221947        6.8284855704  MEMB      15              0.0000000000
      2077        21  POPC      H11X          -12.4167142333      -10.2911602955        7.2020861866  MEMB      15              0.0000000000
      2078        21  POPC      H11Y          -12.9751556342       -8.8585785717        6.2962858278  MEMB      15              0.0000000000
      2079        21  POPC      C312          -13.9270359893      -10.8024468381        5.8490742292  MEMB      15              0.0000000000
      2080        21  POPC      H12X          -14.1027407225      -11.7768451738        6.3530553691  MEMB      15              0.0000000000
      2081        21  POPC      H12Y          -13.1660883929      -10.9444963564        5.0521410824  MEMB      15              0.0000000000
      2082        21  POPC      C313          -15.1760573589      -10.2208113787        5.2023691148  MEMB      15              0.0000000000
      2083        21  POPC      H13X          -14.9348090215       -9.2770635634        4.6680843590  MEMB      15              0.0000000000
      2084        21  POPC      H13Y          -15.9439777088      -10.1662467506        6.0033953781  MEMB      15              0.0000000000
      2085        21  POPC      C314          -15.7988778278      -11.1284955602        4.1637366748  MEMB      15              0.0000000000
      2086        21  POPC      H14X          -16.8965878445      -10.9861988657        4.2591584003  MEMB      15              0.0000000000
      2087        21  POPC      H14Y          -15.7556446093      -12.1984683770        4.4597267999  MEMB      15              0.0000000000
      2088        21  POPC      C315          -15.3271346018      -10.9351749579        2.6797351146  MEMB      15              0.0000000000
      2089        21  POPC      H15X          -14.2175338061      -10.8894669842        2.6478342562  MEMB      15              0.0000000000
      2090        21  POPC      H15Y          -15.7676834411       -9.9643096449        2.3672324693  MEMB      15              0.0000000000
      2091        21  POPC      C316          -15.8623143987      -12.0265293933        1.7286367419  MEMB      15              0.0000000000
      2092        21  POPC      H16X          -16.9437377986      -12.1707355858        1.9385171570  MEMB      15              0.0000000000
      2093        21  POPC      H16Y          -15.3417846927      -12.9886115171        1.9229762179  MEMB      15              0.0000000000
      2094        21  POPC      H16Z          -15.6279331012      -11.7942445708        0.6677745568  MEMB      15              0.0000000000
      2095        22  POPC      N             -10.7717750386       11.9729774200       19.3040949176  MEMB      16              0.0000000000
      2096        22  POPC      C12           -11.7609882602       12.8828191288       18.5324772304  MEMB      16              0.0000000000
      2097        22  POPC      H12A          -12.6860450335       12.3289775409       18.5951636273  MEMB      16              0.0000000000
      2098        22  POPC      H12B          -11.4790276039       12.9085745569       17.4902512787  MEMB      16              0.0000000000
      2099        22  POPC      C13           -10.5204967974       10.7251258073       18.5509587699  MEMB      16              0.0000000000
      2100        22  POPC      H13A           -9.8927718297       10.9298714731       17.6963006262  MEMB      16              0.0000000000
      2101        22  POPC      H13B          -10.1362059927       10.0417903645       19.2937733380  MEMB      16              0.0000000000
      2102        22  POPC      H13C          -11.4660012112       10.3045365026       18.2418856986  MEMB      16              0.0000000000
      2103        22  POPC      C14            -9.4511049473       12.6637134679       19.5548454144  MEMB      16              0.0000000000
      2104        22  POPC      H14A           -9.5458957279       13.3634184051       20.3720526856  MEMB      16              0.0000000000
      2105        22  POPC      H14B           -8.7638326004       11.9071891118       19.9037403630  MEMB      16              0.0000000000
      2106        22  POPC      H14C           -9.1137783720       13.2083258775       18.6853581593  MEMB      16              0.0000000000
      2107        22  POPC      C15           -11.3652812376       11.5521772232       20.6614199617  MEMB      16              0.0000000000
      2108        22  POPC      H15A          -12.4162723380       11.3260649638       20.5580233139  MEMB      16              0.0000000000
      2109        22  POPC      H15B          -11.1756640055       12.2825588731       21.4340699519  MEMB      16              0.0000000000
      2110        22  POPC      H15C          -10.9237566235       10.6409825817       21.0371599480  MEMB      16              0.0000000000
      2111        22  POPC      C11           -12.1743834975       14.3167035383       19.0742428232  MEMB      16              0.0000000000
      2112        22  POPC      H11A          -12.9977202731       14.1991628796       19.8108715509  MEMB      16              0.0000000000
      2113        22  POPC      H11B          -12.6449033302       14.8120507600       18.1981360222  MEMB      16              0.0000000000
      2114        22  POPC      P             -10.5301947961       16.3144849164       18.7122572278  MEMB      16              0.0000000000
      2115        22  POPC      O13            -9.2888947546       16.8802330375       19.2492138712  MEMB      16              0.0000000000
      2116        22  POPC      O14           -11.6063463970       17.1799760521       18.1640307490  MEMB      16              0.0000000000
      2117        22  POPC      O12           -11.1473354527       15.1257475431       19.7097063574  MEMB      16              0.0000000000
      2118        22  POPC      O11           -10.0943826202       15.3881693659       17.4867526774  MEMB      16              0.0000000000
      2119        22  POPC      C1             -9.6986587033       16.0082788018       16.2759151563  MEMB      16              0.0000000000
      2120        22  POPC      HA             -8.6216232779       16.2430322419       16.4145019325  MEMB      16              0.0000000000
      2121        22  POPC      HB            -10.1723194607       16.9876944949       16.0507232553  MEMB      16              0.0000000000
      2122        22  POPC      C2            -10.0080689520       15.0343223039       15.1532240245  MEMB      16              0.0000000000
      2123        22  POPC      HS            -10.1939485623       15.5862711852       14.2071149464  MEMB      16              0.0000000000
      2124        22  POPC      O21           -11.3472479001       14.3680841158       15.3706627723  MEMB      16              0.0000000000
      2125        22  POPC      C21           -12.4726701715       15.1998709107       15.2888166491  MEMB      16              0.0000000000
      2126        22  POPC      O22           -12.4802851685       16.4078074459       15.3555125459  MEMB      16              0.0000000000
      2127        22  POPC      C22           -13.6405869968       14.2175707307       15.3064199020  MEMB      16              0.0000000000
      2128        22  POPC      H2R           -13.9736239746       13.9849609906       16.3404895971  MEMB      16              0.0000000000
      2129        22  POPC      H2S           -13.4304985436       13.2295366126       14.8438482878  MEMB      16              0.0000000000
      2130        22  POPC      C3             -8.9995352910       13.8868008550       14.9870864888  MEMB      16              0.0000000000
      2131        22  POPC      HX             -8.8791758837       13.4726067887       16.0109409002  MEMB      16              0.0000000000
      2132        22  POPC      HY             -8.0055450883       14.3423607770       14.7901864397  MEMB      16              0.0000000000
      2133        22  POPC      O31            -9.2093502103       13.1093272353       13.8024165322  MEMB      16              0.0000000000
      2134        22  POPC      C31            -9.9527244656       11.9876148649       13.9073697786  MEMB      16              0.0000000000
      2135        22  POPC      O32           -10.2244960508       11.3899196555       14.9213358280  MEMB      16              0.0000000000
      2136        22  POPC      C32           -10.5136245780       11.6025267865       12.5405192864  MEMB      16              0.0000000000
      2137        22  POPC      H2X           -11.6211504889       11.6728888598       12.4880168588  MEMB      16              0.0000000000
      2138        22  POPC      H2Y           -10.2625586580       10.5417424198       12.3259893871  MEMB      16              0.0000000000
      2139        22  POPC      C23           -14.7864827274       14.9228845119       14.5777535817  MEMB      16              0.0000000000
      2140        22  POPC      H3R           -15.1185023791       15.8204820295       15.1420253358  MEMB      16              0.0000000000
      2141        22  POPC      H3S           -15.5883182947       14.1789615243       14.7725858701  MEMB      16              0.0000000000
      2142        22  POPC      C24           -14.6207155388       15.0745896967       13.0815815370  MEMB      16              0.0000000000
      2143        22  POPC      H4R           -15.6712944338       15.1285232184       12.7242354650  MEMB      16              0.0000000000
      2144        22  POPC      H4S           -14.2025718674       14.1123387964       12.7161362154  MEMB      16              0.0000000000
      2145        22  POPC      C25           -13.8615521944       16.3111581271       12.6298910160  MEMB      16              0.0000000000
      2146        22  POPC      H5R           -12.8452649641       15.8642413126       12.6716843473  MEMB      16              0.0000000000
      2147        22  POPC      H5S           -13.9333040262       17.1086239693       13.4000989839  MEMB      16              0.0000000000
      2148        22  POPC      C26           -14.2111495500       16.6629020553       11.2595619657  MEMB      16              0.0000000000
      2149        22  POPC      H6R           -15.2436516108       17.0707458339       11.3034266004  MEMB      16              0.0000000000
      2150        22  POPC      H6S           -14.2498883881       15.7717792425       10.5972019824  MEMB      16              0.0000000000
      2151        22  POPC      C27           -13.3603865606       17.8151253101       10.7170615679  MEMB      16              0.0000000000
      2152        22  POPC      H7R           -12.2926826883       17.6044995647       10.9405922872  MEMB      16              0.0000000000
      2153        22  POPC      H7S           -13.5769791744       18.8056469501       11.1712371780  MEMB      16              0.0000000000
      2154        22  POPC      C28           -13.5318666375       17.9376182583        9.2228373064  MEMB      16              0.0000000000
      2155        22  POPC      H8R           -14.6323439044       17.8095189747        9.1400047048  MEMB      16              0.0000000000
      2156        22  POPC      H8S           -12.9794612746       17.0673141095        8.8084217422  MEMB      16              0.0000000000
      2157        22  POPC      C29           -13.0107267156       19.2037952019        8.5750325981  MEMB      16              0.0000000000
      2158        22  POPC      H91           -13.2039572460       20.1361709181        9.1257929170  MEMB      16              0.0000000000
      2159        22  POPC      C210          -12.2970924693       19.2455447365        7.4468526962  MEMB      16              0.0000000000
      2160        22  POPC      H101          -11.8942312651       20.2207179071        7.1358212001  MEMB      16              0.0000000000
      2161        22  POPC      C211          -11.8853738256       18.1319476004        6.5939381178  MEMB      16              0.0000000000
      2162        22  POPC      H11R          -11.8143489932       18.4986248261        5.5475994126  MEMB      16              0.0000000000
      2163        22  POPC      H11S          -12.5762109480       17.2618731642        6.5998856544  MEMB      16              0.0000000000
      2164        22  POPC      C212          -10.5549947368       17.6722168240        7.0941988205  MEMB      16              0.0000000000
      2165        22  POPC      H12R          -10.6212001675       17.1840959399        8.0900284392  MEMB      16              0.0000000000
      2166        22  POPC      H12S           -9.8148311196       18.4942945145        7.1974803328  MEMB      16              0.0000000000
      2167        22  POPC      C213           -9.9288407937       16.6632310267        6.1123678303  MEMB      16              0.0000000000
      2168        22  POPC      H13R          -10.6406210804       15.8286936406        5.9356274808  MEMB      16              0.0000000000
      2169        22  POPC      H13S           -9.1293116324       16.0932888246        6.6322145918  MEMB      16              0.0000000000
      2170        22  POPC      C214           -9.2885613979       17.2414866941        4.8250547492  MEMB      16              0.0000000000
      2171        22  POPC      H14R           -8.3260266222       17.7681796761        4.9995313772  MEMB      16              0.0000000000
      2172        22  POPC      H14S           -9.9081990379       17.9812830578        4.2745353409  MEMB      16              0.0000000000
      2173        22  POPC      C215           -9.0094424200       16.1820865959        3.6903734893  MEMB      16              0.0000000000
      2174        22  POPC      H15R          -10.0460317388       15.8376398605        3.4874944300  MEMB      16              0.0000000000
      2175        22  POPC      H15S           -8.3878646164       15.3033074576        3.9655263695  MEMB      16              0.0000000000
      2176        22  POPC      C216           -8.4850523066       16.8938668886        2.4738365628  MEMB      16              0.0000000000
      2177        22  POPC      H16R           -7.7671917085       17.6612834562        2.8344881579  MEMB      16              0.0000000000
      2178        22  POPC      H16S           -9.2388482283       17.5384478460        1.9732082957  MEMB      16              0.0000000000
      2179        22  POPC      C217           -7.8097373390       15.9696205044        1.4779072386  MEMB      16              0.0000000000
      2180        22  POPC      H17R           -7.1409142870       15.3984185702        2.1566739580  MEMB      16              0.0000000000
      2181        22  POPC      H17S           -7.2050267389       16.4351528686        0.6704877360  MEMB      16              0.0000000000
      2182        22  POPC      C218           -8.7820166228       15.0390729768        0.8343657002  MEMB      16              0.0000000000
      2183        22  POPC      H18R           -8.2703097168       14.2577864138        0.2326435435  MEMB      16              0.0000000000
      2184        22  POPC      H18S           -9.4943353668       15.5298342186        0.1371731441  MEMB      16              0.0000000000
      2185        22  POPC      H18T           -9.0874676507       14.3010208782        1.6065695576  MEMB      16              0.0000000000
      2186        22  POPC      C33            -9.9448475109       12.2894246725       11.2911477617  MEMB      16              0.0000000000
      2187        22  POPC      H3X           -10.2805611681       11.6451711655       10.4505802424  MEMB      16              0.0000000000
      2188        22  POPC      H3Y            -8.8343062245       12.2927633508       11.3228941845  MEMB      16              0.0000000000
      2189        22  POPC      C34           -10.5663333847       13.7251771506       11.1993377726  MEMB      16              0.0000000000
      2190        22  POPC      H4X            -9.8374848112       14.4037770949       10.7067905609  MEMB      16              0.0000000000
      2191        22  POPC      H4Y           -10.8639740804       14.1861247684       12.1653904740  MEMB      16              0.0000000000
      2192        22  POPC      C35           -11.9138205614       13.7402297996       10.3591304783  MEMB      16              0.0000000000
      2193        22  POPC      H5X           -12.4259939587       14.7250708260       10.3134394947  MEMB      16              0.0000000000
      2194        22  POPC      H5Y           -12.5544340486       12.9461905068       10.7989448601  MEMB      16              0.0000000000
      2195        22  POPC      C36           -11.7699669675       13.1908874115        8.9339477988  MEMB      16              0.0000000000
      2196        22  POPC      H6X           -11.2317334259       12.2257480077        8.8193548853  MEMB      16              0.0000000000
      2197        22  POPC      H6Y           -11.3240765894       14.0510048725        8.3901646804  MEMB      16              0.0000000000
      2198        22  POPC      C37           -13.1412134320       12.8266630089        8.3167522850  MEMB      16              0.0000000000
      2199        22  POPC      H7X           -14.0015859612       13.5162295695        8.4530530074  MEMB      16              0.0000000000
      2200        22  POPC      H7Y           -13.5174453215       11.9619735561        8.9041892169  MEMB      16              0.0000000000
      2201        22  POPC      C38           -12.9674565676       12.2240593638        6.8715150396  MEMB      16              0.0000000000
      2202        22  POPC      H8X           -13.7165808829       11.4131328932        6.7468886995  MEMB      16              0.0000000000
      2203        22  POPC      H8Y           -11.9875146742       11.7392933230        6.6739381974  MEMB      16              0.0000000000
      2204        22  POPC      C39           -13.1911988706       13.3773785964        5.8183255877  MEMB      16              0.0000000000
      2205        22  POPC      H9X           -12.3847162730       14.1342497095        5.9234593885  MEMB      16              0.0000000000
      2206        22  POPC      H9Y           -14.0949062157       13.9266511646        6.1588159850  MEMB      16              0.0000000000
      2207        22  POPC      C310          -13.3545644060       13.0090955430        4.3305536174  MEMB      16              0.0000000000
      2208        22  POPC      H10X          -13.5092638110       13.8686992852        3.6439162524  MEMB      16              0.0000000000
      2209        22  POPC      H10Y          -14.2999689312       12.4261408422        4.3041808583  MEMB      16              0.0000000000
      2210        22  POPC      C311          -12.2868604653       12.1201389824        3.7367687641  MEMB      16              0.0000000000
      2211        22  POPC      H11X          -12.6090005250       11.9519337232        2.6868860114  MEMB      16              0.0000000000
      2212        22  POPC      H11Y          -12.2603582947       11.1294606831        4.2389383637  MEMB      16              0.0000000000
      2213        22  POPC      C312          -10.9072389527       12.6136003923        3.6033192418  MEMB      16              0.0000000000
      2214        22  POPC      H12X          -10.4445276477       12.5527148441        4.6115411114  MEMB      16              0.0000000000
      2215        22  POPC      H12Y          -10.9370666236       13.6533272042        3.2129351139  MEMB      16              0.0000000000
      2216        22  POPC      C313          -10.0848541843       11.7327283171        2.6305966496  MEMB      16              0.0000000000
      2217        22  POPC      H13X          -10.1773596652       10.6541009266        2.8802492592  MEMB      16              0.0000000000
      2218        22  POPC      H13Y           -9.0578511433       12.0306488332        2.9319761341  MEMB      16              0.0000000000
      2219        22  POPC      C314          -10.2969941274       11.9645980949        1.1715325953  MEMB      16              0.0000000000
      2220        22  POPC      H14X          -10.5970562903       13.0221116521        1.0104462692  MEMB      16              0.0000000000
      2221        22  POPC      H14Y          -11.1681195379       11.3791259252        0.8072757490  MEMB      16              0.0000000000
      2222        22  POPC      C315           -9.0750272106       11.5165326859        0.3322530013  MEMB      16              0.0000000000
      2223        22  POPC      H15X           -8.1260857868       11.9876451610        0.6667441905  MEMB      16              0.0000000000
      2224        22  POPC      H15Y           -9.2276291773       11.8175101608       -0.7262589893  MEMB      16              0.0000000000
      2225        22  POPC      C316           -8.7516359772       10.0029704406        0.2669998268  MEMB      16              0.0000000000
      2226        22  POPC      H16X           -8.5070150322        9.4947488473        1.2241775494  MEMB      16              0.0000000000
      2227        22  POPC      H16Y           -8.0160654786        9.7481241214       -0.5256610699  MEMB      16              0.0000000000
      2228        22  POPC      H16Z           -9.7669085421        9.6059301494        0.0527529713  MEMB      16              0.0000000000
      2229        23  POPC      N             -15.8354772640        6.1726139252       20.9955853494  MEMB      17              0.0000000000
      2230        23  POPC      C12           -14.6369164385        6.6781886689       20.1771445100  MEMB      17              0.0000000000
      2231        23  POPC      H12A          -14.0863253652        5.8824394635       19.6975269601  MEMB      17              0.0000000000
      2232        23  POPC      H12B          -13.8729180768        7.0209054803       20.8592381002  MEMB      17              0.0000000000
      2233        23  POPC      C13           -16.6653225966        7.2835659403       21.6017821641  MEMB      17              0.0000000000
      2234        23  POPC      H13A          -16.0548792475        7.7476679110       22.3622875578  MEMB      17              0.0000000000
      2235        23  POPC      H13B          -17.0573903221        7.9155543802       20.8186643530  MEMB      17              0.0000000000
      2236        23  POPC      H13C          -17.5225098322        6.8237839333       22.0710694940  MEMB      17              0.0000000000
      2237        23  POPC      C14           -16.8068086221        5.5249876636       20.0774250505  MEMB      17              0.0000000000
      2238        23  POPC      H14A          -16.2881332068        4.7774725401       19.4955340950  MEMB      17              0.0000000000
      2239        23  POPC      H14B          -17.4840914096        4.9699879090       20.7096144390  MEMB      17              0.0000000000
      2240        23  POPC      H14C          -17.2190054237        6.2515776386       19.3929100771  MEMB      17              0.0000000000
      2241        23  POPC      C15           -15.4463869930        5.1735300321       22.1391347524  MEMB      17              0.0000000000
      2242        23  POPC      H15A          -16.4187345749        4.8377220450       22.4680319776  MEMB      17              0.0000000000
      2243        23  POPC      H15B          -14.9381262104        5.7085195447       22.9277137990  MEMB      17              0.0000000000
      2244        23  POPC      H15C          -14.8615753712        4.3528908622       21.7506161446  MEMB      17              0.0000000000
      2245        23  POPC      C11           -14.8870304679        7.7557751656       19.1460518103  MEMB      17              0.0000000000
      2246        23  POPC      H11A          -13.9324618324        7.7680257890       18.5777475674  MEMB      17              0.0000000000
      2247        23  POPC      H11B          -14.8597268928        8.7062693915       19.7206266293  MEMB      17              0.0000000000
      2248        23  POPC      P             -15.9723458503        8.4695882615       16.9358589202  MEMB      17              0.0000000000
      2249        23  POPC      O13           -15.5614201852        9.8651401541       17.0945493911  MEMB      17              0.0000000000
      2250        23  POPC      O14           -17.2605315736        8.2832074464       16.3304561315  MEMB      17              0.0000000000
      2251        23  POPC      O12           -15.9904758974        7.6294983423       18.2975702349  MEMB      17              0.0000000000
      2252        23  POPC      O11           -14.9109433127        7.6231549214       16.2044416807  MEMB      17              0.0000000000
      2253        23  POPC      C1            -14.9645097515        6.2598698100       16.1416323055  MEMB      17              0.0000000000
      2254        23  POPC      HA            -16.0305909562        5.9962295168       15.9734491651  MEMB      17              0.0000000000
      2255        23  POPC      HB            -14.6692478609        5.9059427100       17.1525114941  MEMB      17              0.0000000000
      2256        23  POPC      C2            -14.0096665792        5.6517285589       15.0556395579  MEMB      17              0.0000000000
      2257        23  POPC      HS            -13.9087615313        4.5577406010       15.2209555379  MEMB      17              0.0000000000
      2258        23  POPC      O21           -12.7331980363        6.3395396294       15.0582087624  MEMB      17              0.0000000000
      2259        23  POPC      C21           -11.8021611484        5.8524431603       14.2353232841  MEMB      17              0.0000000000
      2260        23  POPC      O22           -11.9132810678        4.9280391592       13.4565630758  MEMB      17              0.0000000000
      2261        23  POPC      C22           -10.4671692163        6.7304560794       14.4456517587  MEMB      17              0.0000000000
      2262        23  POPC      H2R            -9.6485843133        6.0982830527       14.8513573493  MEMB      17              0.0000000000
      2263        23  POPC      H2S           -10.7332467936        7.5783196089       15.1124734369  MEMB      17              0.0000000000
      2264        23  POPC      C3            -14.6877473915        5.9007077614       13.6030330806  MEMB      17              0.0000000000
      2265        23  POPC      HX            -15.7626988726        5.6618111777       13.7504393368  MEMB      17              0.0000000000
      2266        23  POPC      HY            -14.2569142696        5.2815714536       12.7873285624  MEMB      17              0.0000000000
      2267        23  POPC      O31           -14.5154404793        7.3148899519       13.2875259105  MEMB      17              0.0000000000
      2268        23  POPC      C31           -15.5958575555        7.9790886791       12.9471425865  MEMB      17              0.0000000000
      2269        23  POPC      O32           -16.7420763433        7.6762637822       13.1341396745  MEMB      17              0.0000000000
      2270        23  POPC      C32           -15.1428593393        9.1141067955       12.0422050287  MEMB      17              0.0000000000
      2271        23  POPC      H2X           -14.1405162221        9.0209504798       11.5721510225  MEMB      17              0.0000000000
      2272        23  POPC      H2Y           -15.2592369546       10.0267385943       12.6650056695  MEMB      17              0.0000000000
      2273        23  POPC      C23           -10.0591098470        7.3988189443       13.0737184039  MEMB      17              0.0000000000
      2274        23  POPC      H3R            -9.7789968148        6.5908718672       12.3644375193  MEMB      17              0.0000000000
      2275        23  POPC      H3S            -9.2465043907        8.1158642808       13.3183398683  MEMB      17              0.0000000000
      2276        23  POPC      C24           -11.2261298378        8.3199675408       12.4347871454  MEMB      17              0.0000000000
      2277        23  POPC      H4R           -11.4524904889        9.1322426174       13.1581753995  MEMB      17              0.0000000000
      2278        23  POPC      H4S           -12.0049717886        7.5286125636       12.4733024777  MEMB      17              0.0000000000
      2279        23  POPC      C25           -11.0176885484        8.6347222806       10.9749197031  MEMB      17              0.0000000000
      2280        23  POPC      H5R           -10.0270702846        9.1211017314       10.8467353657  MEMB      17              0.0000000000
      2281        23  POPC      H5S           -11.7620312021        9.4506667074       10.8544625761  MEMB      17              0.0000000000
      2282        23  POPC      C26           -11.3638002959        7.5999294191        9.8935840757  MEMB      17              0.0000000000
      2283        23  POPC      H6R           -11.4946160816        8.0674814933        8.8942822854  MEMB      17              0.0000000000
      2284        23  POPC      H6S           -12.3180756887        7.0628972870       10.0814022097  MEMB      17              0.0000000000
      2285        23  POPC      C27           -10.2735826789        6.5475482540        9.7552502301  MEMB      17              0.0000000000
      2286        23  POPC      H7R           -10.2716069458        5.8346550005       10.6073647696  MEMB      17              0.0000000000
      2287        23  POPC      H7S            -9.2468637072        6.9637559724        9.8385594903  MEMB      17              0.0000000000
      2288        23  POPC      C28           -10.4132907582        5.7243285093        8.5194024765  MEMB      17              0.0000000000
      2289        23  POPC      H8R            -9.6535677048        4.9428023174        8.7347120529  MEMB      17              0.0000000000
      2290        23  POPC      H8S            -9.8814146920        6.1557618796        7.6445909790  MEMB      17              0.0000000000
      2291        23  POPC      C29           -11.7303918986        5.1158013565        8.1700956865  MEMB      17              0.0000000000
      2292        23  POPC      H91           -12.1069034226        4.2543213111        8.7411396195  MEMB      17              0.0000000000
      2293        23  POPC      C210          -12.5714815906        5.4887030805        7.1436947050  MEMB      17              0.0000000000
      2294        23  POPC      H101          -13.5268459598        4.9556227525        7.0292204460  MEMB      17              0.0000000000
      2295        23  POPC      C211          -12.4681285411        6.5426173393        6.0821723522  MEMB      17              0.0000000000
      2296        23  POPC      H11R          -12.0047609170        7.4189473142        6.5838268414  MEMB      17              0.0000000000
      2297        23  POPC      H11S          -13.5333353945        6.7326064187        5.8300623447  MEMB      17              0.0000000000
      2298        23  POPC      C212          -11.7004217124        6.2879331007        4.7473346425  MEMB      17              0.0000000000
      2299        23  POPC      H12R          -10.6987736630        6.0400009076        5.1591008739  MEMB      17              0.0000000000
      2300        23  POPC      H12S          -11.7113894577        7.3337433758        4.3725264030  MEMB      17              0.0000000000
      2301        23  POPC      C213          -12.1219479859        5.3053083165        3.6895011734  MEMB      17              0.0000000000
      2302        23  POPC      H13R          -11.8842436141        4.2770302974        4.0365772499  MEMB      17              0.0000000000
      2303        23  POPC      H13S          -11.4284359553        5.5183710437        2.8480936887  MEMB      17              0.0000000000
      2304        23  POPC      C214          -13.5250843017        5.5584985880        3.2868417670  MEMB      17              0.0000000000
      2305        23  POPC      H14R          -13.5763856761        6.6401397483        3.0383632190  MEMB      17              0.0000000000
      2306        23  POPC      H14S          -14.2044341487        5.5497290962        4.1658904979  MEMB      17              0.0000000000
      2307        23  POPC      C215          -14.2023159808        4.7265664838        2.2383124817  MEMB      17              0.0000000000
      2308        23  POPC      H15R          -13.4688213613        4.6069278595        1.4124842013  MEMB      17              0.0000000000
      2309        23  POPC      H15S          -15.0269241874        5.2845038356        1.7453127415  MEMB      17              0.0000000000
      2310        23  POPC      C216          -14.5852633440        3.2665778131        2.8278645923  MEMB      17              0.0000000000
      2311        23  POPC      H16R          -15.5403636270        3.3005908879        3.3943866101  MEMB      17              0.0000000000
      2312        23  POPC      H16S          -13.7250557493        2.8930139028        3.4235268941  MEMB      17              0.0000000000
      2313        23  POPC      C217          -14.7666600107        2.2001552199        1.6999535003  MEMB      17              0.0000000000
      2314        23  POPC      H17R          -13.9047280358        2.1005660955        1.0060697224  MEMB      17              0.0000000000
      2315        23  POPC      H17S          -15.5438693073        2.6984440114        1.0819120192  MEMB      17              0.0000000000
      2316        23  POPC      C218          -15.2919850979        0.8340858992        2.0844048800  MEMB      17              0.0000000000
      2317        23  POPC      H18R          -15.1813983309        0.0397253920        1.3155875868  MEMB      17              0.0000000000
      2318        23  POPC      H18S          -16.3738156797        0.8900598877        2.3310452979  MEMB      17              0.0000000000
      2319        23  POPC      H18T          -14.7785263095        0.4366085661        2.9858997681  MEMB      17              0.0000000000
      2320        23  POPC      C33           -16.1407761681        9.1881710125       10.8855768960  MEMB      17              0.0000000000
      2321        23  POPC      H3X           -17.1216938937        9.4604224450       11.3305492555  MEMB      17              0.0000000000
      2322        23  POPC      H3Y           -16.3200932531        8.1449266505       10.5482231005  MEMB      17              0.0000000000
      2323        23  POPC      C34           -15.7155878775       10.0501367785        9.5996197049  MEMB      17              0.0000000000
      2324        23  POPC      H4X           -14.6147050538        9.9073095780        9.5551411196  MEMB      17              0.0000000000
      2325        23  POPC      H4Y           -15.9954134027       11.1211135453        9.6946303720  MEMB      17              0.0000000000
      2326        23  POPC      C35           -16.5615421087        9.5998072086        8.3381055862  MEMB      17              0.0000000000
      2327        23  POPC      H5X           -17.5883013066        9.6090890832        8.7623689386  MEMB      17              0.0000000000
      2328        23  POPC      H5Y           -16.4305750594        8.5142217125        8.1414514820  MEMB      17              0.0000000000
      2329        23  POPC      C36           -16.4832044414       10.5669240481        7.1722781403  MEMB      17              0.0000000000
      2330        23  POPC      H6X           -15.6055162581       10.4393158390        6.5031738073  MEMB      17              0.0000000000
      2331        23  POPC      H6Y           -16.3009861804       11.5771260633        7.5972598912  MEMB      17              0.0000000000
      2332        23  POPC      C37           -17.7173470893       10.5595483628        6.3326025196  MEMB      17              0.0000000000
      2333        23  POPC      H7X           -17.6696544577       11.4025647626        5.6105432555  MEMB      17              0.0000000000
      2334        23  POPC      H7Y           -18.6097957716       10.7708082005        6.9596795014  MEMB      17              0.0000000000
      2335        23  POPC      C38           -18.0169671895        9.3081176178        5.6113997790  MEMB      17              0.0000000000
      2336        23  POPC      H8X           -18.7033635781        9.4996714886        4.7590572035  MEMB      17              0.0000000000
      2337        23  POPC      H8Y           -18.5455350103        8.5994543519        6.2842544029  MEMB      17              0.0000000000
      2338        23  POPC      C39           -16.8776802158        8.4876197299        5.0130156439  MEMB      17              0.0000000000
      2339        23  POPC      H9X           -17.2199534935        7.4744737742        4.7118419666  MEMB      17              0.0000000000
      2340        23  POPC      H9Y           -16.2000240192        8.1770527752        5.8368178592  MEMB      17              0.0000000000
      2341        23  POPC      C310          -16.0883063368        9.1828454684        3.9251433885  MEMB      17              0.0000000000
      2342        23  POPC      H10X          -15.0561050821        8.7775733004        3.8570535567  MEMB      17              0.0000000000
      2343        23  POPC      H10Y          -15.9895355107       10.2555636542        4.1968805216  MEMB      17              0.0000000000
      2344        23  POPC      C311          -16.5922927404        9.0416292669        2.4645676062  MEMB      17              0.0000000000
      2345        23  POPC      H11X          -17.5921443732        9.5154793460        2.3641517126  MEMB      17              0.0000000000
      2346        23  POPC      H11Y          -16.6951864770        7.9625556551        2.2209833777  MEMB      17              0.0000000000
      2347        23  POPC      C312          -15.6910282412        9.5973159759        1.4338825883  MEMB      17              0.0000000000
      2348        23  POPC      H12X          -14.6928727139        9.1510703732        1.6310414344  MEMB      17              0.0000000000
      2349        23  POPC      H12Y          -15.3919983566       10.6470796742        1.6409995939  MEMB      17              0.0000000000
      2350        23  POPC      C313          -16.0031956792        9.4378260109       -0.0628102063  MEMB      17              0.0000000000
      2351        23  POPC      H13X          -15.4444523486       10.1772938789       -0.6754385678  MEMB      17              0.0000000000
      2352        23  POPC      H13Y          -17.0857469702        9.6705091846       -0.1537042591  MEMB      17              0.0000000000
      2353        23  POPC      C314          -15.6587733497        8.0539465025       -0.7131991618  MEMB      17              0.0000000000
      2354        23  POPC      H14X          -15.8538439449        7.2906422984        0.0701503999  MEMB      17              0.0000000000
      2355        23  POPC      H14Y          -14.5529053451        8.0720152172       -0.8183194461  MEMB      17              0.0000000000
      2356        23  POPC      C315          -16.3472444799        7.9386954319       -2.0794197420  MEMB      17              0.0000000000
      2357        23  POPC      H15X          -16.2844203257        8.9080659012       -2.6185809031  MEMB      17              0.0000000000
      2358        23  POPC      H15Y          -17.4562195776        7.9015404068       -2.0236025564  MEMB      17              0.0000000000
      2359        23  POPC      C316          -15.7548938794        6.8662805669       -2.8442778850  MEMB      17              0.0000000000
      2360        23  POPC      H16X          -14.7257980528        7.1453190867       -3.1564010746  MEMB      17              0.0000000000
      2361        23  POPC      H16Y          -16.4351646771        6.5393600080       -3.6595541165  MEMB      17              0.0000000000
      2362        23  POPC      H16Z          -15.7440360951        6.0041466281       -2.1436154396  MEMB      17              0.0000000000
      2363        24  POPC      N              -5.4738577347       19.3684077598       20.8552116426  MEMB      18              0.0000000000
      2364        24  POPC      C12            -4.4620874672       20.4414509580       20.3650567834  MEMB      18              0.0000000000
      2365        24  POPC      H12A           -3.8625533788       20.7489067292       21.2091123679  MEMB      18              0.0000000000
      2366        24  POPC      H12B           -5.0609876088       21.2710427583       20.0193748525  MEMB      18              0.0000000000
      2367        24  POPC      C13            -6.8346080226       19.5642788125       20.1091600278  MEMB      18              0.0000000000
      2368        24  POPC      H13A           -6.7279867817       19.5819460119       19.0345811449  MEMB      18              0.0000000000
      2369        24  POPC      H13B           -7.4672132552       18.7316237597       20.3791528596  MEMB      18              0.0000000000
      2370        24  POPC      H13C           -7.2207803425       20.5025467414       20.4791928881  MEMB      18              0.0000000000
      2371        24  POPC      C14            -4.9512291159       18.0052854365       20.5019009065  MEMB      18              0.0000000000
      2372        24  POPC      H14A           -3.9704999931       17.9040180245       20.9427129890  MEMB      18              0.0000000000
      2373        24  POPC      H14B           -5.5130164534       17.1687051293       20.8903961205  MEMB      18              0.0000000000
      2374        24  POPC      H14C           -4.9290235962       18.0509190887       19.4230939186  MEMB      18              0.0000000000
      2375        24  POPC      C15            -5.6087373343       19.2595026932       22.3422909055  MEMB      18              0.0000000000
      2376        24  POPC      H15A           -5.8056933010       20.2231160388       22.7884498239  MEMB      18              0.0000000000
      2377        24  POPC      H15B           -4.7695110637       18.8018998558       22.8449826169  MEMB      18              0.0000000000
      2378        24  POPC      H15C           -6.4646683265       18.6208029340       22.5030537156  MEMB      18              0.0000000000
      2379        24  POPC      C11            -3.6765274342       20.2118035181       19.1123862698  MEMB      18              0.0000000000
      2380        24  POPC      H11A           -3.1024841604       19.2609980025       19.1400275871  MEMB      18              0.0000000000
      2381        24  POPC      H11B           -2.9164107935       20.9890111542       18.8832751775  MEMB      18              0.0000000000
      2382        24  POPC      P              -5.1421576797       21.1709178396       17.1285448361  MEMB      18              0.0000000000
      2383        24  POPC      O13            -4.0281867712       21.6561758159       16.2589519227  MEMB      18              0.0000000000
      2384        24  POPC      O14            -5.7874574603       22.1912023623       17.9659530733  MEMB      18              0.0000000000
      2385        24  POPC      O12            -4.6004383028       20.0381778160       18.1384289413  MEMB      18              0.0000000000
      2386        24  POPC      O11            -6.1746735488       20.4014757188       16.2221146894  MEMB      18              0.0000000000
      2387        24  POPC      C1             -6.7423757875       19.1816999703       16.6245642229  MEMB      18              0.0000000000
      2388        24  POPC      HA             -7.4185524343       19.4550656248       17.4626437729  MEMB      18              0.0000000000
      2389        24  POPC      HB             -5.9233657619       18.4745372341       16.8764860016  MEMB      18              0.0000000000
      2390        24  POPC      C2             -7.5966414097       18.4899188841       15.4665158712  MEMB      18              0.0000000000
      2391        24  POPC      HS             -8.0051477570       17.5059187057       15.7814553027  MEMB      18              0.0000000000
      2392        24  POPC      O21            -6.8806330788       18.3893302330       14.2396089362  MEMB      18              0.0000000000
      2393        24  POPC      C21            -5.9829401292       17.3539337384       14.3167534983  MEMB      18              0.0000000000
      2394        24  POPC      O22            -6.0575709604       16.4813287532       15.1598921052  MEMB      18              0.0000000000
      2395        24  POPC      C22            -4.8792722899       17.5574022876       13.2562817637  MEMB      18              0.0000000000
      2396        24  POPC      H2R            -4.8415036281       16.7815970874       12.4619138411  MEMB      18              0.0000000000
      2397        24  POPC      H2S            -3.8932556998       17.5060888319       13.7656533076  MEMB      18              0.0000000000
      2398        24  POPC      C3             -8.8408122061       19.3739949902       15.1828425095  MEMB      18              0.0000000000
      2399        24  POPC      HX             -9.3889088298       19.4251900036       16.1478762988  MEMB      18              0.0000000000
      2400        24  POPC      HY             -9.5912231443       18.8768394500       14.5316586869  MEMB      18              0.0000000000
      2401        24  POPC      O31            -8.5977806636       20.7107143054       14.8249534014  MEMB      18              0.0000000000
      2402        24  POPC      C31            -8.5551027776       21.0404006228       13.5225837726  MEMB      18              0.0000000000
      2403        24  POPC      O32            -8.6729302410       20.2859458793       12.5970534159  MEMB      18              0.0000000000
      2404        24  POPC      C32            -8.0609140115       22.4635711920       13.3436106406  MEMB      18              0.0000000000
      2405        24  POPC      H2X            -6.9636283985       22.4529148248       13.5173110671  MEMB      18              0.0000000000
      2406        24  POPC      H2Y            -8.5585711128       23.0465685379       14.1478326824  MEMB      18              0.0000000000
      2407        24  POPC      C23            -4.9235349617       18.9792050072       12.5616148480  MEMB      18              0.0000000000
      2408        24  POPC      H3R            -4.9136753444       19.7416585468       13.3696298382  MEMB      18              0.0000000000
      2409        24  POPC      H3S            -5.8896855226       19.1238058928       12.0324974602  MEMB      18              0.0000000000
      2410        24  POPC      C24            -3.9388857327       19.3522254892       11.4264955973  MEMB      18              0.0000000000
      2411        24  POPC      H4R            -3.0209195897       19.7052367495       11.9432572061  MEMB      18              0.0000000000
      2412        24  POPC      H4S            -4.3373276196       20.2718283300       10.9470215914  MEMB      18              0.0000000000
      2413        24  POPC      C25            -3.6946530846       18.2937925590       10.3801169849  MEMB      18              0.0000000000
      2414        24  POPC      H5R            -3.2296883873       17.3384282693       10.7047822938  MEMB      18              0.0000000000
      2415        24  POPC      H5S            -2.9251625261       18.6421355161        9.6584092265  MEMB      18              0.0000000000
      2416        24  POPC      C26            -4.9400670888       17.8642568484        9.5162614593  MEMB      18              0.0000000000
      2417        24  POPC      H6R            -5.3319872458       18.7408759913        8.9574605547  MEMB      18              0.0000000000
      2418        24  POPC      H6S            -5.8031684347       17.3598531406       10.0009818593  MEMB      18              0.0000000000
      2419        24  POPC      C27            -4.4584949143       16.8440407690        8.4492851204  MEMB      18              0.0000000000
      2420        24  POPC      H7R            -4.2653407742       15.8368646194        8.8766131319  MEMB      18              0.0000000000
      2421        24  POPC      H7S            -3.4727606387       17.1157326068        8.0147365137  MEMB      18              0.0000000000
      2422        24  POPC      C28            -5.4476322992       16.5205727839        7.3001323934  MEMB      18              0.0000000000
      2423        24  POPC      H8R            -4.9317439570       15.7856444975        6.6458679807  MEMB      18              0.0000000000
      2424        24  POPC      H8S            -5.6906282197       17.4982298309        6.8316661668  MEMB      18              0.0000000000
      2425        24  POPC      C29            -6.6987019644       15.7550544094        7.6017351796  MEMB      18              0.0000000000
      2426        24  POPC      H91            -6.5052013292       14.8259894347        8.1579689068  MEMB      18              0.0000000000
      2427        24  POPC      C210           -8.0119761503       16.0327379712        7.2729049863  MEMB      18              0.0000000000
      2428        24  POPC      H101           -8.7776109005       15.3643293840        7.6936582043  MEMB      18              0.0000000000
      2429        24  POPC      C211           -8.4638028556       17.2510370936        6.5051552209  MEMB      18              0.0000000000
      2430        24  POPC      H11R           -7.8560228932       18.1389305227        6.7818679754  MEMB      18              0.0000000000
      2431        24  POPC      H11S           -9.4873485901       17.3779381593        6.9181583828  MEMB      18              0.0000000000
      2432        24  POPC      C212           -8.4551978721       17.1291564223        4.9618046397  MEMB      18              0.0000000000
      2433        24  POPC      H12R           -7.3754291410       17.0128681719        4.7275021814  MEMB      18              0.0000000000
      2434        24  POPC      H12S           -8.8590945777       18.0987859801        4.5998551882  MEMB      18              0.0000000000
      2435        24  POPC      C213           -9.1803908154       15.9083198893        4.3933094681  MEMB      18              0.0000000000
      2436        24  POPC      H13R          -10.2726259826       16.0913131587        4.3046705092  MEMB      18              0.0000000000
      2437        24  POPC      H13S           -8.9557043443       15.0209819944        5.0229677233  MEMB      18              0.0000000000
      2438        24  POPC      C214           -8.7897469327       15.5030604858        2.8888438889  MEMB      18              0.0000000000
      2439        24  POPC      H14R           -8.9425696592       16.4176410743        2.2768718466  MEMB      18              0.0000000000
      2440        24  POPC      H14S           -9.5772907652       14.7423150375        2.7007951075  MEMB      18              0.0000000000
      2441        24  POPC      C215           -7.3851281963       14.9329720491        2.7402641484  MEMB      18              0.0000000000
      2442        24  POPC      H15R           -7.1934016237       14.1786721451        3.5331024273  MEMB      18              0.0000000000
      2443        24  POPC      H15S           -6.5989677928       15.6980045429        2.9163273158  MEMB      18              0.0000000000
      2444        24  POPC      C216           -7.1664242485       14.3247434337        1.3747253258  MEMB      18              0.0000000000
      2445        24  POPC      H16R           -8.1156500986       13.8246930526        1.0862119815  MEMB      18              0.0000000000
      2446        24  POPC      H16S           -6.2780922931       13.6623987913        1.2941820062  MEMB      18              0.0000000000
      2447        24  POPC      C217           -6.7979926849       15.4461496537        0.3007367111  MEMB      18              0.0000000000
      2448        24  POPC      H17R           -5.7377910731       15.6252339400        0.5804168983  MEMB      18              0.0000000000
      2449        24  POPC      H17S           -7.3676859123       16.3949173434        0.3987689183  MEMB      18              0.0000000000
      2450        24  POPC      C218           -7.0642988875       14.8679578611       -1.0740159723  MEMB      18              0.0000000000
      2451        24  POPC      H18R           -6.9601684941       15.6926429618       -1.8111551247  MEMB      18              0.0000000000
      2452        24  POPC      H18S           -8.1288538949       14.6290647109       -1.2837156131  MEMB      18              0.0000000000
      2453        24  POPC      H18T           -6.3194285851       14.0995175285       -1.3723259221  MEMB      18              0.0000000000
      2454        24  POPC      C33            -8.3587863376       23.1790477961       11.8973249936  MEMB      18              0.0000000000
      2455        24  POPC      H3X            -8.3115659529       24.2585423152       12.1557489307  MEMB      18              0.0000000000
      2456        24  POPC      H3Y            -9.3557918902       22.9013267080       11.4933792941  MEMB      18              0.0000000000
      2457        24  POPC      C34            -7.3070870734       22.7959593405       10.8042287072  MEMB      18              0.0000000000
      2458        24  POPC      H4X            -7.0276320641       21.7233741252       10.7281589143  MEMB      18              0.0000000000
      2459        24  POPC      H4Y            -6.3370306295       23.2616944596       11.0806391050  MEMB      18              0.0000000000
      2460        24  POPC      C35            -7.6318853475       23.3792346659        9.3687954597  MEMB      18              0.0000000000
      2461        24  POPC      H5X            -7.8453721306       24.4684687967        9.4168945665  MEMB      18              0.0000000000
      2462        24  POPC      H5Y            -8.5066305864       22.8377762005        8.9493143743  MEMB      18              0.0000000000
      2463        24  POPC      C36            -6.5525570602       23.1836991091        8.2645982906  MEMB      18              0.0000000000
      2464        24  POPC      H6X            -5.6923635508       23.7905694515        8.6196992723  MEMB      18              0.0000000000
      2465        24  POPC      H6Y            -6.8738874580       23.6612458705        7.3143265979  MEMB      18              0.0000000000
      2466        24  POPC      C37            -6.2504225685       21.6444668642        8.0622971325  MEMB      18              0.0000000000
      2467        24  POPC      H7X            -7.2293618452       21.1217196631        8.1145875979  MEMB      18              0.0000000000
      2468        24  POPC      H7Y            -5.7812979315       21.1853566636        8.9586563007  MEMB      18              0.0000000000
      2469        24  POPC      C38            -5.5512756923       21.3074081765        6.7078596498  MEMB      18              0.0000000000
      2470        24  POPC      H8X            -6.2767486325       21.5421197541        5.8998244290  MEMB      18              0.0000000000
      2471        24  POPC      H8Y            -5.4399204436       20.2021507622        6.7259449169  MEMB      18              0.0000000000
      2472        24  POPC      C39            -4.2132805808       21.9927503231        6.4773831492  MEMB      18              0.0000000000
      2473        24  POPC      H9X            -3.7396982986       21.9981389940        7.4823770780  MEMB      18              0.0000000000
      2474        24  POPC      H9Y            -4.4259867035       23.0673252912        6.2920034398  MEMB      18              0.0000000000
      2475        24  POPC      C310           -3.4614620760       21.3226166126        5.3975854040  MEMB      18              0.0000000000
      2476        24  POPC      H10X           -3.4625727132       20.2122139309        5.4339945098  MEMB      18              0.0000000000
      2477        24  POPC      H10Y           -2.3680332164       21.5190956448        5.4090356102  MEMB      18              0.0000000000
      2478        24  POPC      C311           -3.8981224007       21.8416916053        3.9826208887  MEMB      18              0.0000000000
      2479        24  POPC      H11X           -3.0297756049       21.7269326251        3.2991551855  MEMB      18              0.0000000000
      2480        24  POPC      H11Y           -4.1889100642       22.9117954680        4.0507455645  MEMB      18              0.0000000000
      2481        24  POPC      C312           -5.0082058572       20.9069869340        3.3664442767  MEMB      18              0.0000000000
      2482        24  POPC      H12X           -5.8456104821       20.7436755637        4.0780644630  MEMB      18              0.0000000000
      2483        24  POPC      H12Y           -4.5527764480       19.9101707525        3.1840636963  MEMB      18              0.0000000000
      2484        24  POPC      C313           -5.5198264994       21.4273103132        2.0418699274  MEMB      18              0.0000000000
      2485        24  POPC      H13X           -5.8599555388       20.5569692850        1.4409216256  MEMB      18              0.0000000000
      2486        24  POPC      H13Y           -4.6150472810       21.8294194831        1.5378816739  MEMB      18              0.0000000000
      2487        24  POPC      C314           -6.5118552072       22.5726604528        1.9984998476  MEMB      18              0.0000000000
      2488        24  POPC      H14X           -5.9875137891       23.3623425793        2.5779725954  MEMB      18              0.0000000000
      2489        24  POPC      H14Y           -7.4887477817       22.3321107047        2.4698152456  MEMB      18              0.0000000000
      2490        24  POPC      C315           -6.6360002816       23.2118299582        0.5825329455  MEMB      18              0.0000000000
      2491        24  POPC      H15X           -6.8630152828       22.4170798225       -0.1598674511  MEMB      18              0.0000000000
      2492        24  POPC      H15Y           -5.6014649546       23.4975704421        0.2954617428  MEMB      18              0.0000000000
      2493        24  POPC      C316           -7.5180657826       24.4685870284        0.5935747575  MEMB      18              0.0000000000
      2494        24  POPC      H16X           -7.3091793387       24.8899000610       -0.4129945236  MEMB      18              0.0000000000
      2495        24  POPC      H16Y           -7.0797568538       25.1698930946        1.3354493367  MEMB      18              0.0000000000
      2496        24  POPC      H16Z           -8.6197402139       24.3538213392        0.6799642623  MEMB      18              0.0000000000
      2497        25  POPC      N              22.2976673397        0.5524007680       20.6572769587  MEMB      19              0.0000000000
      2498        25  POPC      C12            22.7236308274        0.7953118610       19.2255719613  MEMB      19              0.0000000000
      2499        25  POPC      H12A           23.4956401129        0.0568467854       19.0672331675  MEMB      19              0.0000000000
      2500        25  POPC      H12B           23.1042894551        1.7984246157       19.1020252443  MEMB      19              0.0000000000
      2501        25  POPC      C13            23.4384519410        0.6457696254       21.6353436749  MEMB      19              0.0000000000
      2502        25  POPC      H13A           23.0890378981        1.2661438981       22.4474061677  MEMB      19              0.0000000000
      2503        25  POPC      H13B           23.8318579037       -0.3208115114       21.9134672985  MEMB      19              0.0000000000
      2504        25  POPC      H13C           24.2067487894        1.1987012887       21.1153567082  MEMB      19              0.0000000000
      2505        25  POPC      C14            21.3096737023        1.5861244493       21.1026242418  MEMB      19              0.0000000000
      2506        25  POPC      H14A           21.8244452445        2.5280475114       20.9834975261  MEMB      19              0.0000000000
      2507        25  POPC      H14B           20.4096039448        1.6031247610       20.5059790701  MEMB      19              0.0000000000
      2508        25  POPC      H14C           21.1423447109        1.5253366374       22.1678498223  MEMB      19              0.0000000000
      2509        25  POPC      C15            21.8003015431       -0.8390014358       20.7733864055  MEMB      19              0.0000000000
      2510        25  POPC      H15A           20.7729783543       -0.8001181669       20.4424859147  MEMB      19              0.0000000000
      2511        25  POPC      H15B           21.8263074956       -1.3140852343       21.7429322035  MEMB      19              0.0000000000
      2512        25  POPC      H15C           22.3761895266       -1.5072147491       20.1502940725  MEMB      19              0.0000000000
      2513        25  POPC      C11            21.7266257024        0.7336303016       18.0478984638  MEMB      19              0.0000000000
      2514        25  POPC      H11A           21.4220333817       -0.3329577980       17.9851742429  MEMB      19              0.0000000000
      2515        25  POPC      H11B           22.2082676169        0.9727405472       17.0757007515  MEMB      19              0.0000000000
      2516        25  POPC      P              20.5310853043        2.9519124158       17.4864145690  MEMB      19              0.0000000000
      2517        25  POPC      O13            19.7378256578        3.9517434240       18.2619356535  MEMB      19              0.0000000000
      2518        25  POPC      O14            20.1116903390        2.8128859379       16.0841567017  MEMB      19              0.0000000000
      2519        25  POPC      O12            20.5925205573        1.5910206112       18.2270639721  MEMB      19              0.0000000000
      2520        25  POPC      O11            22.0448647216        3.4938474720       17.4983274070  MEMB      19              0.0000000000
      2521        25  POPC      C1             22.3834353369        4.4088929125       18.5049942388  MEMB      19              0.0000000000
      2522        25  POPC      HA             22.2988379887        3.8433205646       19.4575130870  MEMB      19              0.0000000000
      2523        25  POPC      HB             21.7087892029        5.2900485565       18.5573239561  MEMB      19              0.0000000000
      2524        25  POPC      C2             23.9132678820        4.8502350238       18.3004393064  MEMB      19              0.0000000000
      2525        25  POPC      HS             24.1668886534        5.5380070655       19.1352848330  MEMB      19              0.0000000000
      2526        25  POPC      O21            24.0501758170        5.4509863539       16.9957541275  MEMB      19              0.0000000000
      2527        25  POPC      C21            23.6715579121        6.7191189486       16.7687921985  MEMB      19              0.0000000000
      2528        25  POPC      O22            23.0695716844        7.4398868373       17.5686992025  MEMB      19              0.0000000000
      2529        25  POPC      C22            24.1488449206        6.9761404992       15.3570843366  MEMB      19              0.0000000000
      2530        25  POPC      H2R            24.9507861238        6.2517108934       15.0993763638  MEMB      19              0.0000000000
      2531        25  POPC      H2S            24.4533153055        8.0347057897       15.2119708741  MEMB      19              0.0000000000
      2532        25  POPC      C3             24.9577149250        3.6478128661       18.4052793053  MEMB      19              0.0000000000
      2533        25  POPC      HX             24.9075487745        3.2245053602       19.4312496703  MEMB      19              0.0000000000
      2534        25  POPC      HY             26.0045738730        3.9905492590       18.2605758893  MEMB      19              0.0000000000
      2535        25  POPC      O31            24.5649342616        2.6525859333       17.4633669263  MEMB      19              0.0000000000
      2536        25  POPC      C31            25.5253200394        1.7849508200       17.2972261565  MEMB      19              0.0000000000
      2537        25  POPC      O32            26.5724677745        1.6623446867       17.9326202857  MEMB      19              0.0000000000
      2538        25  POPC      C32            25.3080820324        0.9764237462       16.0175681807  MEMB      19              0.0000000000
      2539        25  POPC      H2X            24.3516795273        0.4111431771       16.0261235318  MEMB      19              0.0000000000
      2540        25  POPC      H2Y            26.0796940981        0.1809605400       15.9389945233  MEMB      19              0.0000000000
      2541        25  POPC      C23            22.9217360971        6.9868349671       14.4321940267  MEMB      19              0.0000000000
      2542        25  POPC      H3R            23.1351065663        7.5196144577       13.4809106787  MEMB      19              0.0000000000
      2543        25  POPC      H3S            22.0740274837        7.5910445882       14.8203201837  MEMB      19              0.0000000000
      2544        25  POPC      C24            22.4617976874        5.5463190765       14.1809498029  MEMB      19              0.0000000000
      2545        25  POPC      H4R            22.2123278385        4.9331859900       15.0732244285  MEMB      19              0.0000000000
      2546        25  POPC      H4S            23.2991233970        4.9872654506       13.7111990703  MEMB      19              0.0000000000
      2547        25  POPC      C25            21.2084669875        5.4726520320       13.2888505737  MEMB      19              0.0000000000
      2548        25  POPC      H5R            20.5070412599        6.2593705840       13.6401295820  MEMB      19              0.0000000000
      2549        25  POPC      H5S            20.7588455037        4.4615063548       13.3875714576  MEMB      19              0.0000000000
      2550        25  POPC      C26            21.3402874941        5.7923798519       11.7870845552  MEMB      19              0.0000000000
      2551        25  POPC      H6R            21.4347230519        4.8293949257       11.2411333027  MEMB      19              0.0000000000
      2552        25  POPC      H6S            22.3500513093        6.2505001162       11.7176291301  MEMB      19              0.0000000000
      2553        25  POPC      C27            20.2419055873        6.5998346157       11.1005201606  MEMB      19              0.0000000000
      2554        25  POPC      H7R            19.9972373202        7.4983215070       11.7064741620  MEMB      19              0.0000000000
      2555        25  POPC      H7S            19.3559703389        5.9299700683       11.1273783103  MEMB      19              0.0000000000
      2556        25  POPC      C28            20.6589445599        7.0094733627        9.6312912186  MEMB      19              0.0000000000
      2557        25  POPC      H8R            19.8323227002        7.6551852989        9.2651311121  MEMB      19              0.0000000000
      2558        25  POPC      H8S            20.6938339395        6.0836589440        9.0181263974  MEMB      19              0.0000000000
      2559        25  POPC      C29            21.9846067565        7.7224918194        9.4932798393  MEMB      19              0.0000000000
      2560        25  POPC      H91            21.9038165297        8.8105250471        9.6334823976  MEMB      19              0.0000000000
      2561        25  POPC      C210           23.1993154165        7.1407280298        9.1858702405  MEMB      19              0.0000000000
      2562        25  POPC      H101           24.1119115915        7.7411906330        9.0569787781  MEMB      19              0.0000000000
      2563        25  POPC      C211           23.4946540594        5.6996875036        9.0030158324  MEMB      19              0.0000000000
      2564        25  POPC      H11R           22.6770976368        5.1144415601        9.4756783173  MEMB      19              0.0000000000
      2565        25  POPC      H11S           24.3920796212        5.4395517241        9.6040797618  MEMB      19              0.0000000000
      2566        25  POPC      C212           23.8701893808        5.3064863822        7.5587239314  MEMB      19              0.0000000000
      2567        25  POPC      H12R           24.4926908141        4.3959777661        7.6920920510  MEMB      19              0.0000000000
      2568        25  POPC      H12S           24.6220127437        6.0877681140        7.3164812524  MEMB      19              0.0000000000
      2569        25  POPC      C213           22.6706118787        5.2210623552        6.6195807743  MEMB      19              0.0000000000
      2570        25  POPC      H13R           21.9852026792        6.0845865678        6.7569172496  MEMB      19              0.0000000000
      2571        25  POPC      H13S           22.1311802836        4.3264125568        6.9976497497  MEMB      19              0.0000000000
      2572        25  POPC      C214           23.0143557450        5.0547809733        5.1609485682  MEMB      19              0.0000000000
      2573        25  POPC      H14R           22.0580197159        5.2629634710        4.6352081306  MEMB      19              0.0000000000
      2574        25  POPC      H14S           23.3450031486        4.0210216507        4.9235988753  MEMB      19              0.0000000000
      2575        25  POPC      C215           24.1095456094        6.0229518361        4.5741740196  MEMB      19              0.0000000000
      2576        25  POPC      H15R           25.0771589452        5.7100170251        5.0215183827  MEMB      19              0.0000000000
      2577        25  POPC      H15S           23.7934711220        7.0187088132        4.9521766668  MEMB      19              0.0000000000
      2578        25  POPC      C216           24.1447098037        5.9977163931        3.0618496844  MEMB      19              0.0000000000
      2579        25  POPC      H16R           23.2488115673        6.5201705082        2.6634415422  MEMB      19              0.0000000000
      2580        25  POPC      H16S           24.0745315913        4.9392699823        2.7315660562  MEMB      19              0.0000000000
      2581        25  POPC      C217           25.3876377886        6.7339374880        2.4101634214  MEMB      19              0.0000000000
      2582        25  POPC      H17R           25.4982897270        7.7730168455        2.7875110339  MEMB      19              0.0000000000
      2583        25  POPC      H17S           25.1562637349        6.6677016950        1.3255442961  MEMB      19              0.0000000000
      2584        25  POPC      C218           26.7013306825        5.9475838496        2.5699683086  MEMB      19              0.0000000000
      2585        25  POPC      H18R           26.6109357090        4.9627967515        2.0636650266  MEMB      19              0.0000000000
      2586        25  POPC      H18S           26.8995473516        5.8437593738        3.6582028597  MEMB      19              0.0000000000
      2587        25  POPC      H18T           27.5770586512        6.4657888107        2.1240022557  MEMB      19              0.0000000000
      2588        25  POPC      C33            25.3706789716        1.9155374996       14.7858658068  MEMB      19              0.0000000000
      2589        25  POPC      H3X            26.4007751790        2.3302647000       14.8208484480  MEMB      19              0.0000000000
      2590        25  POPC      H3Y            24.7356976745        2.8270195640       14.8037568105  MEMB      19              0.0000000000
      2591        25  POPC      C34            25.1279449968        1.2706243026       13.4744315350  MEMB      19              0.0000000000
      2592        25  POPC      H4X            26.0300806243        0.6290050890       13.3806378791  MEMB      19              0.0000000000
      2593        25  POPC      H4Y            25.2811513399        2.1753456703       12.8480703672  MEMB      19              0.0000000000
      2594        25  POPC      C35            23.7259426108        0.6399828033       13.2391964911  MEMB      19              0.0000000000
      2595        25  POPC      H5X            23.0480253385        1.4468602648       12.8874894411  MEMB      19              0.0000000000
      2596        25  POPC      H5Y            23.2065976115        0.2139462261       14.1241227853  MEMB      19              0.0000000000
      2597        25  POPC      C36            23.6248064770       -0.3306747411       12.0910951686  MEMB      19              0.0000000000
      2598        25  POPC      H6X            22.5432353797       -0.5709220629       12.1735944435  MEMB      19              0.0000000000
      2599        25  POPC      H6Y            24.3146536454       -1.1634323257       12.3459410814  MEMB      19              0.0000000000
      2600        25  POPC      C37            23.9210895888        0.2446276628       10.6476776767  MEMB      19              0.0000000000
      2601        25  POPC      H7X            25.0236786533        0.3365299490       10.5468198844  MEMB      19              0.0000000000
      2602        25  POPC      H7Y            23.5733851375        1.2930379063       10.7670856398  MEMB      19              0.0000000000
      2603        25  POPC      C38            23.3072684419       -0.4547868588        9.3825076342  MEMB      19              0.0000000000
      2604        25  POPC      H8X            22.2047411360       -0.4694716944        9.5186652450  MEMB      19              0.0000000000
      2605        25  POPC      H8Y            23.4456228321       -1.5569498228        9.3620994209  MEMB      19              0.0000000000
      2606        25  POPC      C39            23.7986403996        0.1018643023        8.1070233241  MEMB      19              0.0000000000
      2607        25  POPC      H9X            23.5860175545       -0.6360000983        7.3041108013  MEMB      19              0.0000000000
      2608        25  POPC      H9Y            24.9067193682        0.1538690516        8.0455624333  MEMB      19              0.0000000000
      2609        25  POPC      C310           22.9815053902        1.3724202231        7.7163592528  MEMB      19              0.0000000000
      2610        25  POPC      H10X           23.5773505835        1.8869219644        6.9324093765  MEMB      19              0.0000000000
      2611        25  POPC      H10Y           22.8763460168        2.1546418958        8.4982747032  MEMB      19              0.0000000000
      2612        25  POPC      C311           21.5109777085        0.9919235876        7.1906568343  MEMB      19              0.0000000000
      2613        25  POPC      H11X           20.7138679869        1.7653659212        7.2175659331  MEMB      19              0.0000000000
      2614        25  POPC      H11Y           21.0486544157        0.2943424215        7.9213816917  MEMB      19              0.0000000000
      2615        25  POPC      C312           21.6346144192        0.3431958968        5.7627596047  MEMB      19              0.0000000000
      2616        25  POPC      H12X           20.7305145596       -0.2185794898        5.4444311983  MEMB      19              0.0000000000
      2617        25  POPC      H12Y           22.5487687133       -0.2874879289        5.7330876841  MEMB      19              0.0000000000
      2618        25  POPC      C313           21.7943903143        1.3989445532        4.6747494107  MEMB      19              0.0000000000
      2619        25  POPC      H13X           22.7809679044        1.9029997031        4.7579009033  MEMB      19              0.0000000000
      2620        25  POPC      H13Y           20.9267372436        2.0418229564        4.9359134413  MEMB      19              0.0000000000
      2621        25  POPC      C314           21.3838844053        0.9226876905        3.2631256141  MEMB      19              0.0000000000
      2622        25  POPC      H14X           20.3033385867        0.6663529748        3.2309649637  MEMB      19              0.0000000000
      2623        25  POPC      H14Y           22.0079392852        0.0351206982        3.0241664125  MEMB      19              0.0000000000
      2624        25  POPC      C315           21.5838595154        2.0378789289        2.1743646028  MEMB      19              0.0000000000
      2625        25  POPC      H15X           21.5806327590        1.6565955098        1.1308438213  MEMB      19              0.0000000000
      2626        25  POPC      H15Y           22.6530043761        2.3324351273        2.2413492325  MEMB      19              0.0000000000
      2627        25  POPC      C316           20.7713547822        3.3937634973        2.3142016380  MEMB      19              0.0000000000
      2628        25  POPC      H16X           19.7094953388        3.1192045762        2.4913818216  MEMB      19              0.0000000000
      2629        25  POPC      H16Y           20.7673693808        3.9372260134        1.3452049524  MEMB      19              0.0000000000
      2630        25  POPC      H16Z           21.1909925612        3.9803374675        3.1592791918  MEMB      19              0.0000000000
      2631        26  POPC      N              19.2410401430        9.1602401250       20.2777287570  MEMB      20              0.0000000000
      2632        26  POPC      C12            19.3446710764        9.3076827313       18.7726144814  MEMB      20              0.0000000000
      2633        26  POPC      H12A           18.5406541183        8.7490526992       18.3166657393  MEMB      20              0.0000000000
      2634        26  POPC      H12B           20.3038390128        8.9008256722       18.4882483669  MEMB      20              0.0000000000
      2635        26  POPC      C13            17.7630117004        9.1316154396       20.5774428825  MEMB      20              0.0000000000
      2636        26  POPC      H13A           17.3584792326       10.1314427272       20.5217762730  MEMB      20              0.0000000000
      2637        26  POPC      H13B           17.2462678827        8.4250523673       19.9448731873  MEMB      20              0.0000000000
      2638        26  POPC      H13C           17.7983762372        8.7662767186       21.5931578509  MEMB      20              0.0000000000
      2639        26  POPC      C14            19.7973617961        7.8480447778       20.5996388361  MEMB      20              0.0000000000
      2640        26  POPC      H14A           20.8680398919        7.7786397016       20.4762247349  MEMB      20              0.0000000000
      2641        26  POPC      H14B           19.5308319726        7.6989788754       21.6355639592  MEMB      20              0.0000000000
      2642        26  POPC      H14C           19.3291684092        7.0785948461       20.0037008255  MEMB      20              0.0000000000
      2643        26  POPC      C15            19.9355159540       10.2913602379       21.1034954146  MEMB      20              0.0000000000
      2644        26  POPC      H15A           19.3796818567       11.2156636984       21.0477128110  MEMB      20              0.0000000000
      2645        26  POPC      H15B           20.9584507124       10.3409983763       20.7606535693  MEMB      20              0.0000000000
      2646        26  POPC      H15C           19.9852724341       10.1685592073       22.1753370336  MEMB      20              0.0000000000
      2647        26  POPC      C11            19.3488157509       10.7520259948       18.1633648755  MEMB      20              0.0000000000
      2648        26  POPC      H11A           19.1922392971       10.6029308353       17.0736055358  MEMB      20              0.0000000000
      2649        26  POPC      H11B           20.3489648525       11.2292891735       18.2423749776  MEMB      20              0.0000000000
      2650        26  POPC      P              18.0236785255       12.8828268614       17.9024507319  MEMB      20              0.0000000000
      2651        26  POPC      O13            19.3605853022       13.2828485066       17.3700022751  MEMB      20              0.0000000000
      2652        26  POPC      O14            17.2656864733       13.9069648738       18.6981199541  MEMB      20              0.0000000000
      2653        26  POPC      O12            18.3421135113       11.5977563693       18.7839642443  MEMB      20              0.0000000000
      2654        26  POPC      O11            17.0629735889       12.2366162288       16.7511775910  MEMB      20              0.0000000000
      2655        26  POPC      C1             15.8873629417       12.9504776845       16.2101717891  MEMB      20              0.0000000000
      2656        26  POPC      HA             15.9677336790       13.0975015515       15.1118797850  MEMB      20              0.0000000000
      2657        26  POPC      HB             15.9046742028       13.9827739579       16.6205202223  MEMB      20              0.0000000000
      2658        26  POPC      C2             14.5656224669       12.2507341479       16.5526231412  MEMB      20              0.0000000000
      2659        26  POPC      HS             14.4376434243       12.3364101037       17.6528966372  MEMB      20              0.0000000000
      2660        26  POPC      O21            14.6501888614       10.8845050869       16.0217369227  MEMB      20              0.0000000000
      2661        26  POPC      C21            15.1843262700        9.9631694435       16.8684641161  MEMB      20              0.0000000000
      2662        26  POPC      O22            15.3383119114       10.1066879176       18.0430554958  MEMB      20              0.0000000000
      2663        26  POPC      C22            15.2251377342        8.6196637099       16.1363808561  MEMB      20              0.0000000000
      2664        26  POPC      H2R            14.5505699207        8.6739486743       15.2552838372  MEMB      20              0.0000000000
      2665        26  POPC      H2S            15.0277321947        7.7929631375       16.8518655354  MEMB      20              0.0000000000
      2666        26  POPC      C3             13.3956492369       13.0434529246       15.8367023899  MEMB      20              0.0000000000
      2667        26  POPC      HX             13.6534789116       13.9809559882       16.3742271833  MEMB      20              0.0000000000
      2668        26  POPC      HY             12.3473957007       12.7553297330       16.0657664149  MEMB      20              0.0000000000
      2669        26  POPC      O31            13.6372000466       13.1901053058       14.4907191753  MEMB      20              0.0000000000
      2670        26  POPC      C31            13.1527666212       12.2378150990       13.7223591278  MEMB      20              0.0000000000
      2671        26  POPC      O32            12.4785350696       11.3163861064       14.0934073642  MEMB      20              0.0000000000
      2672        26  POPC      C32            13.4949526232       12.6209520604       12.3831861305  MEMB      20              0.0000000000
      2673        26  POPC      H2X            13.0489502814       13.6274169991       12.2334148599  MEMB      20              0.0000000000
      2674        26  POPC      H2Y            13.0631992238       11.9641043997       11.5980360181  MEMB      20              0.0000000000
      2675        26  POPC      C23            16.5735201039        8.1832298009       15.4689466555  MEMB      20              0.0000000000
      2676        26  POPC      H3R            16.5109907717        7.1677348005       15.0226501504  MEMB      20              0.0000000000
      2677        26  POPC      H3S            17.3227933445        8.0209010465       16.2730362525  MEMB      20              0.0000000000
      2678        26  POPC      C24            17.0678237901        9.0908464957       14.3974360452  MEMB      20              0.0000000000
      2679        26  POPC      H4R            17.4800598981        9.9833094832       14.9150191786  MEMB      20              0.0000000000
      2680        26  POPC      H4S            16.3871464144        9.4345819311       13.5894480393  MEMB      20              0.0000000000
      2681        26  POPC      C25            18.3360166940        8.5770616963       13.6905708550  MEMB      20              0.0000000000
      2682        26  POPC      H5R            18.4004149811        7.4679320247       13.6882387766  MEMB      20              0.0000000000
      2683        26  POPC      H5S            19.2639197274        9.0815933911       14.0351936526  MEMB      20              0.0000000000
      2684        26  POPC      C26            18.3557839933        8.8336153749       12.1582356080  MEMB      20              0.0000000000
      2685        26  POPC      H6R            18.2695011362        9.9237686297       11.9621679673  MEMB      20              0.0000000000
      2686        26  POPC      H6S            17.5601396150        8.2397639575       11.6596261769  MEMB      20              0.0000000000
      2687        26  POPC      C27            19.7576242649        8.5622774467       11.6752874463  MEMB      20              0.0000000000
      2688        26  POPC      H7R            19.9757278553        7.4950356626       11.8937974671  MEMB      20              0.0000000000
      2689        26  POPC      H7S            20.4709004207        9.1948456510       12.2457395840  MEMB      20              0.0000000000
      2690        26  POPC      C28            19.9187097864        8.7889094365       10.1818390751  MEMB      20              0.0000000000
      2691        26  POPC      H8R            20.9901249678        8.6365182156        9.9305073999  MEMB      20              0.0000000000
      2692        26  POPC      H8S            19.5819750896        9.8351511225       10.0196382509  MEMB      20              0.0000000000
      2693        26  POPC      C29            19.2326046951        7.7668279740        9.4005013716  MEMB      20              0.0000000000
      2694        26  POPC      H91            19.7013674321        6.7825314038        9.5468635727  MEMB      20              0.0000000000
      2695        26  POPC      C210           18.3060863064        8.0237936976        8.4789767670  MEMB      20              0.0000000000
      2696        26  POPC      H101           17.8564515514        7.1102714569        8.0626760134  MEMB      20              0.0000000000
      2697        26  POPC      C211           17.7108279861        9.3136119995        8.0242454403  MEMB      20              0.0000000000
      2698        26  POPC      H11R           17.7149284650        9.5371487788        6.9359740205  MEMB      20              0.0000000000
      2699        26  POPC      H11S           18.4401691313       10.1313795526        8.2076537564  MEMB      20              0.0000000000
      2700        26  POPC      C212           16.3662370327        9.6312545391        8.6007767044  MEMB      20              0.0000000000
      2701        26  POPC      H12R           16.0507936826       10.6945278634        8.5354598730  MEMB      20              0.0000000000
      2702        26  POPC      H12S           16.3689435533        9.4652118410        9.6992956876  MEMB      20              0.0000000000
      2703        26  POPC      C213           15.2280724501        8.7011071468        8.1265111763  MEMB      20              0.0000000000
      2704        26  POPC      H13R           14.2202441695        9.1235472882        8.3268795389  MEMB      20              0.0000000000
      2705        26  POPC      H13S           15.3633717771        7.7853577663        8.7408551500  MEMB      20              0.0000000000
      2706        26  POPC      C214           15.3243059866        8.1895809081        6.6406225812  MEMB      20              0.0000000000
      2707        26  POPC      H14R           16.1765358140        7.4768278281        6.6378056548  MEMB      20              0.0000000000
      2708        26  POPC      H14S           15.4431437099        8.9669656299        5.8558478276  MEMB      20              0.0000000000
      2709        26  POPC      C215           13.9856267527        7.4456261050        6.1844601300  MEMB      20              0.0000000000
      2710        26  POPC      H15R           13.2644562240        8.2123438969        5.8289639978  MEMB      20              0.0000000000
      2711        26  POPC      H15S           13.6282715233        6.8578569953        7.0568968270  MEMB      20              0.0000000000
      2712        26  POPC      C216           14.0882993466        6.6590935979        4.8476476338  MEMB      20              0.0000000000
      2713        26  POPC      H16R           13.1481633325        6.0764557047        4.7427744121  MEMB      20              0.0000000000
      2714        26  POPC      H16S           14.9574730464        5.9989997267        5.0553357243  MEMB      20              0.0000000000
      2715        26  POPC      C217           14.3073269930        7.5946323384        3.6191129658  MEMB      20              0.0000000000
      2716        26  POPC      H17R           15.2193004873        8.2259375974        3.6829791776  MEMB      20              0.0000000000
      2717        26  POPC      H17S           13.4700226509        8.3241138810        3.5859601037  MEMB      20              0.0000000000
      2718        26  POPC      C218           14.3505977739        6.8754606578        2.3061011484  MEMB      20              0.0000000000
      2719        26  POPC      H18R           13.7823012192        5.9268416806        2.1989468644  MEMB      20              0.0000000000
      2720        26  POPC      H18S           15.3919258242        6.5490019201        2.0978191664  MEMB      20              0.0000000000
      2721        26  POPC      H18T           14.0156740778        7.5991848541        1.5325571757  MEMB      20              0.0000000000
      2722        26  POPC      C33            15.0322862624       12.5647933845       12.2460819000  MEMB      20              0.0000000000
      2723        26  POPC      H3X            15.5488063840       11.6402585036       12.5818846388  MEMB      20              0.0000000000
      2724        26  POPC      H3Y            15.4405709836       13.3418854915       12.9270756232  MEMB      20              0.0000000000
      2725        26  POPC      C34            15.4935165671       12.9469488831       10.8597092456  MEMB      20              0.0000000000
      2726        26  POPC      H4X            14.8540238706       12.4177788729       10.1212320538  MEMB      20              0.0000000000
      2727        26  POPC      H4Y            16.5748540509       12.7185984210       10.7461910924  MEMB      20              0.0000000000
      2728        26  POPC      C35            15.3557783751       14.4111718280       10.6158730462  MEMB      20              0.0000000000
      2729        26  POPC      H5X            14.3345941160       14.6396766862       10.9890878319  MEMB      20              0.0000000000
      2730        26  POPC      H5Y            15.3824950929       14.5219144961        9.5107290674  MEMB      20              0.0000000000
      2731        26  POPC      C36            16.3451919823       15.3940368396       11.1689382631  MEMB      20              0.0000000000
      2732        26  POPC      H6X            16.6905260875       15.1330483756       12.1921443384  MEMB      20              0.0000000000
      2733        26  POPC      H6Y            15.9138814861       16.4147855776       11.2487172617  MEMB      20              0.0000000000
      2734        26  POPC      C37            17.5738066304       15.6381572846       10.2625742330  MEMB      20              0.0000000000
      2735        26  POPC      H7X            18.1746240315       14.7036736137       10.2536646599  MEMB      20              0.0000000000
      2736        26  POPC      H7Y            18.1805316253       16.4550729540       10.7085053491  MEMB      20              0.0000000000
      2737        26  POPC      C38            17.3163340590       15.8682181516        8.7858131027  MEMB      20              0.0000000000
      2738        26  POPC      H8X            17.9542152618       16.7583260435        8.5983660964  MEMB      20              0.0000000000
      2739        26  POPC      H8Y            16.2682077293       16.1945698811        8.6147975292  MEMB      20              0.0000000000
      2740        26  POPC      C39            17.6456773963       14.7603576906        7.7694481831  MEMB      20              0.0000000000
      2741        26  POPC      H9X            17.0841762815       14.9849133354        6.8374548619  MEMB      20              0.0000000000
      2742        26  POPC      H9Y            17.3018032364       13.7757589673        8.1523807542  MEMB      20              0.0000000000
      2743        26  POPC      C310           19.1749262655       14.6186252216        7.3585206389  MEMB      20              0.0000000000
      2744        26  POPC      H10X           19.6400138928       14.5518569404        8.3652759101  MEMB      20              0.0000000000
      2745        26  POPC      H10Y           19.5612994203       15.3972015516        6.6665269682  MEMB      20              0.0000000000
      2746        26  POPC      C311           19.5535342766       13.3611200673        6.6227076239  MEMB      20              0.0000000000
      2747        26  POPC      H11X           19.1883476253       12.4289078104        7.1043091885  MEMB      20              0.0000000000
      2748        26  POPC      H11Y           20.6402219707       13.1757913160        6.4845615101  MEMB      20              0.0000000000
      2749        26  POPC      C312           18.9936525230       13.2989985455        5.1740925135  MEMB      20              0.0000000000
      2750        26  POPC      H12X           19.2052432783       14.2691390231        4.6757176198  MEMB      20              0.0000000000
      2751        26  POPC      H12Y           17.8922806407       13.2645523728        5.3159178209  MEMB      20              0.0000000000
      2752        26  POPC      C313           19.5299687067       12.2610509749        4.1778584541  MEMB      20              0.0000000000
      2753        26  POPC      H13X           19.4748633168       11.2893082110        4.7135820848  MEMB      20              0.0000000000
      2754        26  POPC      H13Y           20.5691924146       12.5558598570        3.9181998699  MEMB      20              0.0000000000
      2755        26  POPC      C314           18.7515968272       12.1301134607        2.7924535186  MEMB      20              0.0000000000
      2756        26  POPC      H14X           19.2631288340       11.4649858363        2.0642630694  MEMB      20              0.0000000000
      2757        26  POPC      H14Y           18.7312701290       13.1696896131        2.4010596424  MEMB      20              0.0000000000
      2758        26  POPC      C315           17.3187535248       11.6804535353        2.8316442333  MEMB      20              0.0000000000
      2759        26  POPC      H15X           16.6624223180       12.3688618187        3.4057904730  MEMB      20              0.0000000000
      2760        26  POPC      H15Y           17.2566419848       10.7995292400        3.5057625817  MEMB      20              0.0000000000
      2761        26  POPC      C316           16.8524605079       11.1923538775        1.4665719537  MEMB      20              0.0000000000
      2762        26  POPC      H16X           17.6595953729       10.6528196606        0.9264265269  MEMB      20              0.0000000000
      2763        26  POPC      H16Y           16.6030557666       12.1138350235        0.8982490365  MEMB      20              0.0000000000
      2764        26  POPC      H16Z           15.9392515631       10.5932422918        1.6701299861  MEMB      20              0.0000000000
      2765        27  POPC      N             -20.0496032852       -5.8003102398       20.5569266146  MEMB      21              0.0000000000
      2766        27  POPC      C12           -21.2749991809       -5.6136156432       19.5639329792  MEMB      21              0.0000000000
      2767        27  POPC      H12A          -21.0993041567       -4.7078083843       19.0026448572  MEMB      21              0.0000000000
      2768        27  POPC      H12B          -22.2332292977       -5.3591335040       19.9922246489  MEMB      21              0.0000000000
      2769        27  POPC      C13           -18.7326685315       -5.7192713014       19.8600051121  MEMB      21              0.0000000000
      2770        27  POPC      H13A          -18.6812992834       -4.7651685666       19.3565674675  MEMB      21              0.0000000000
      2771        27  POPC      H13B          -17.9515914125       -5.9110386688       20.5807988081  MEMB      21              0.0000000000
      2772        27  POPC      H13C          -18.6847894192       -6.6227572018       19.2702417253  MEMB      21              0.0000000000
      2773        27  POPC      C14           -20.2640738098       -4.5599450155       21.4773977513  MEMB      21              0.0000000000
      2774        27  POPC      H14A          -19.3749476181       -4.4331473155       22.0772119695  MEMB      21              0.0000000000
      2775        27  POPC      H14B          -20.4561155730       -3.6596389185       20.9126242386  MEMB      21              0.0000000000
      2776        27  POPC      H14C          -21.1387759321       -4.6606815259       22.1028164570  MEMB      21              0.0000000000
      2777        27  POPC      C15           -20.2765825714       -7.0477827815       21.4133348933  MEMB      21              0.0000000000
      2778        27  POPC      H15A          -21.2018744705       -7.0585987594       21.9702171872  MEMB      21              0.0000000000
      2779        27  POPC      H15B          -19.3838454287       -7.1581558471       22.0110289587  MEMB      21              0.0000000000
      2780        27  POPC      H15C          -20.4196296414       -7.9137806881       20.7840613516  MEMB      21              0.0000000000
      2781        27  POPC      C11           -21.5623412183       -6.7699739537       18.5939861247  MEMB      21              0.0000000000
      2782        27  POPC      H11A          -22.1425250443       -6.3297570181       17.7549886736  MEMB      21              0.0000000000
      2783        27  POPC      H11B          -22.1083101551       -7.6102975429       19.0736685233  MEMB      21              0.0000000000
      2784        27  POPC      P             -20.1151712988       -8.6781614778       17.5565208378  MEMB      21              0.0000000000
      2785        27  POPC      O13           -20.1998328212       -9.6307767335       18.6834297044  MEMB      21              0.0000000000
      2786        27  POPC      O14           -18.9048788351       -8.7634809834       16.7144811387  MEMB      21              0.0000000000
      2787        27  POPC      O12           -20.3945115041       -7.1820675318       17.9160808018  MEMB      21              0.0000000000
      2788        27  POPC      O11           -21.3851067479       -8.9491008453       16.6639040471  MEMB      21              0.0000000000
      2789        27  POPC      C1            -21.6961002678      -10.1557650514       16.0449142662  MEMB      21              0.0000000000
      2790        27  POPC      HA            -22.6992606643      -10.5501374880       16.3140994185  MEMB      21              0.0000000000
      2791        27  POPC      HB            -21.0138312310      -11.0205337064       16.1898455863  MEMB      21              0.0000000000
      2792        27  POPC      C2            -21.9088801691       -9.9624234530       14.5090279915  MEMB      21              0.0000000000
      2793        27  POPC      HS            -22.0922079296      -10.9498577126       14.0339641984  MEMB      21              0.0000000000
      2794        27  POPC      O21           -20.7022772022       -9.3799117318       14.0088431259  MEMB      21              0.0000000000
      2795        27  POPC      C21           -19.7437103280      -10.2289511063       13.6029591630  MEMB      21              0.0000000000
      2796        27  POPC      O22           -19.7994297306      -11.4531716654       13.5826761919  MEMB      21              0.0000000000
      2797        27  POPC      C22           -18.6960864903       -9.3202263793       12.8545743719  MEMB      21              0.0000000000
      2798        27  POPC      H2R           -18.2671579462       -8.5910204282       13.5747128438  MEMB      21              0.0000000000
      2799        27  POPC      H2S           -19.2542975174       -8.7248166673       12.1007782538  MEMB      21              0.0000000000
      2800        27  POPC      C3            -23.1236485665       -8.9672173457       14.1329449593  MEMB      21              0.0000000000
      2801        27  POPC      HX            -22.7428998768       -8.0366234655       14.6055402538  MEMB      21              0.0000000000
      2802        27  POPC      HY            -24.1069176942       -9.1768605075       14.6057581755  MEMB      21              0.0000000000
      2803        27  POPC      O31           -23.3776054708       -8.8200709971       12.7169927778  MEMB      21              0.0000000000
      2804        27  POPC      C31           -22.7085310837       -7.8321888762       12.0067926707  MEMB      21              0.0000000000
      2805        27  POPC      O32           -21.9925089136       -6.9917762191       12.4439107620  MEMB      21              0.0000000000
      2806        27  POPC      C32           -22.9563330455       -8.1223247517       10.5484117748  MEMB      21              0.0000000000
      2807        27  POPC      H2X           -24.0020697696       -8.4190070597       10.3187703859  MEMB      21              0.0000000000
      2808        27  POPC      H2Y           -22.4397423384       -9.0247061154       10.1570514345  MEMB      21              0.0000000000
      2809        27  POPC      C23           -17.5475860848      -10.1701528358       12.3132035115  MEMB      21              0.0000000000
      2810        27  POPC      H3R           -17.8894602799      -10.9124369329       11.5605702909  MEMB      21              0.0000000000
      2811        27  POPC      H3S           -17.1443656338      -10.8784770373       13.0681946149  MEMB      21              0.0000000000
      2812        27  POPC      C24           -16.4010679959       -9.3970088337       11.6794368038  MEMB      21              0.0000000000
      2813        27  POPC      H4R           -15.6025407192      -10.1077654637       11.3769474897  MEMB      21              0.0000000000
      2814        27  POPC      H4S           -15.8878497328       -8.8019205563       12.4648016505  MEMB      21              0.0000000000
      2815        27  POPC      C25           -16.8520099913       -8.5739522191       10.5142248187  MEMB      21              0.0000000000
      2816        27  POPC      H5R           -15.8579660564       -8.1802004633       10.2123016488  MEMB      21              0.0000000000
      2817        27  POPC      H5S           -17.4922193413       -7.7594441634       10.9155096177  MEMB      21              0.0000000000
      2818        27  POPC      C26           -17.3425579439       -9.4162848751        9.3308196290  MEMB      21              0.0000000000
      2819        27  POPC      H6R           -18.2989985452       -9.9013563048        9.6210740008  MEMB      21              0.0000000000
      2820        27  POPC      H6S           -16.5088679955      -10.1500073122        9.3002702806  MEMB      21              0.0000000000
      2821        27  POPC      C27           -17.4389113308       -8.6457833334        7.9970606130  MEMB      21              0.0000000000
      2822        27  POPC      H7R           -16.5180113056       -8.0564146469        7.7998082078  MEMB      21              0.0000000000
      2823        27  POPC      H7S           -18.3318871396       -7.9928103760        8.0997338051  MEMB      21              0.0000000000
      2824        27  POPC      C28           -17.4811313513       -9.5826593457        6.8284075681  MEMB      21              0.0000000000
      2825        27  POPC      H8R           -16.4975573462      -10.0940102236        6.7547654288  MEMB      21              0.0000000000
      2826        27  POPC      H8S           -17.4234984841       -8.9404938107        5.9236295910  MEMB      21              0.0000000000
      2827        27  POPC      C29           -18.5841464280      -10.5761280762        7.1274385926  MEMB      21              0.0000000000
      2828        27  POPC      H91           -18.2404644093      -11.3959976530        7.7752785752  MEMB      21              0.0000000000
      2829        27  POPC      C210          -19.8219756290      -10.6651524247        6.6443971170  MEMB      21              0.0000000000
      2830        27  POPC      H101          -20.5906462420      -11.3761110046        6.9815663356  MEMB      21              0.0000000000
      2831        27  POPC      C211          -20.3984341757       -9.7013374648        5.6994118547  MEMB      21              0.0000000000
      2832        27  POPC      H11R          -19.6060650698       -8.9980270441        5.3650071351  MEMB      21              0.0000000000
      2833        27  POPC      H11S          -21.3020895795       -9.2528159079        6.1647677412  MEMB      21              0.0000000000
      2834        27  POPC      C212          -20.8627410702      -10.4584592583        4.4184586229  MEMB      21              0.0000000000
      2835        27  POPC      H12R          -20.0792546068      -11.0982079748        3.9589030325  MEMB      21              0.0000000000
      2836        27  POPC      H12S          -20.9699343815       -9.6018790734        3.7191014216  MEMB      21              0.0000000000
      2837        27  POPC      C213          -22.1589907292      -11.2529406138        4.4589660348  MEMB      21              0.0000000000
      2838        27  POPC      H13R          -21.9349034409      -12.1713929594        5.0425330386  MEMB      21              0.0000000000
      2839        27  POPC      H13S          -22.4388703860      -11.5652092848        3.4301430001  MEMB      21              0.0000000000
      2840        27  POPC      C214          -23.3770172246      -10.5630199791        5.0624155950  MEMB      21              0.0000000000
      2841        27  POPC      H14R          -22.9475356481      -10.3287325569        6.0599002605  MEMB      21              0.0000000000
      2842        27  POPC      H14S          -24.0581841333      -11.4297564579        5.2006229658  MEMB      21              0.0000000000
      2843        27  POPC      C215          -23.9788567512       -9.4378464758        4.3109071515  MEMB      21              0.0000000000
      2844        27  POPC      H15R          -23.1909489351       -8.6548073883        4.2916085187  MEMB      21              0.0000000000
      2845        27  POPC      H15S          -24.8959839033       -9.0988081202        4.8384027896  MEMB      21              0.0000000000
      2846        27  POPC      C216          -24.3260118194       -9.7062388578        2.7835486006  MEMB      21              0.0000000000
      2847        27  POPC      H16R          -25.1255519585      -10.4750702366        2.7206609969  MEMB      21              0.0000000000
      2848        27  POPC      H16S          -23.4251850638      -10.1512856283        2.3094540939  MEMB      21              0.0000000000
      2849        27  POPC      C217          -24.7073154251       -8.4132420483        2.0176982123  MEMB      21              0.0000000000
      2850        27  POPC      H17R          -23.9992249001       -7.5894201033        2.2506073343  MEMB      21              0.0000000000
      2851        27  POPC      H17S          -25.6972240134       -8.0415420695        2.3586401937  MEMB      21              0.0000000000
      2852        27  POPC      C218          -24.6939224490       -8.6085329871        0.4801380793  MEMB      21              0.0000000000
      2853        27  POPC      H18R          -25.3186465775       -7.8539421819       -0.0439165038  MEMB      21              0.0000000000
      2854        27  POPC      H18S          -25.1366315221       -9.5700301255        0.1427165259  MEMB      21              0.0000000000
      2855        27  POPC      H18T          -23.6402758933       -8.5131064488        0.1409580417  MEMB      21              0.0000000000
      2856        27  POPC      C33           -22.5404066048       -6.9554637518        9.6337899768  MEMB      21              0.0000000000
      2857        27  POPC      H3X           -22.8813111405       -5.9467532013        9.9509772824  MEMB      21              0.0000000000
      2858        27  POPC      H3Y           -23.0239521191       -7.0750837273        8.6407155023  MEMB      21              0.0000000000
      2859        27  POPC      C34           -21.0084523640       -6.9727756112        9.2982896127  MEMB      21              0.0000000000
      2860        27  POPC      H4X           -20.7184179331       -7.9853829199        8.9449804041  MEMB      21              0.0000000000
      2861        27  POPC      H4Y           -20.4320264965       -6.8088927875       10.2338094837  MEMB      21              0.0000000000
      2862        27  POPC      C35           -20.5257372955       -6.0407998966        8.1517931837  MEMB      21              0.0000000000
      2863        27  POPC      H5X           -19.5450943321       -5.6359182410        8.4815374764  MEMB      21              0.0000000000
      2864        27  POPC      H5Y           -21.1606108400       -5.1296355810        8.1839827403  MEMB      21              0.0000000000
      2865        27  POPC      C36           -20.5949579784       -6.5084943176        6.6824160215  MEMB      21              0.0000000000
      2866        27  POPC      H6X           -21.5682742720       -7.0010151505        6.4717035737  MEMB      21              0.0000000000
      2867        27  POPC      H6Y           -19.7880013713       -7.2704912788        6.6323898620  MEMB      21              0.0000000000
      2868        27  POPC      C37           -20.2907292166       -5.4441576129        5.6486269958  MEMB      21              0.0000000000
      2869        27  POPC      H7X           -19.4187588809       -4.8513401390        5.9987073153  MEMB      21              0.0000000000
      2870        27  POPC      H7Y           -21.1786710681       -4.7774222486        5.6119643109  MEMB      21              0.0000000000
      2871        27  POPC      C38           -19.8641161665       -5.9687682131        4.2421526745  MEMB      21              0.0000000000
      2872        27  POPC      H8X           -19.1754026791       -6.8190874045        4.4343812627  MEMB      21              0.0000000000
      2873        27  POPC      H8Y           -19.3083771372       -5.1454466752        3.7445416600  MEMB      21              0.0000000000
      2874        27  POPC      C39           -20.9917379328       -6.3097601515        3.2854000298  MEMB      21              0.0000000000
      2875        27  POPC      H9X           -21.6360875887       -5.4378012701        3.0428667530  MEMB      21              0.0000000000
      2876        27  POPC      H9Y           -21.7203060227       -7.0270991879        3.7200657014  MEMB      21              0.0000000000
      2877        27  POPC      C310          -20.6636973577       -7.0865105287        2.0415994400  MEMB      21              0.0000000000
      2878        27  POPC      H10X          -21.5062901429       -7.7513929700        1.7547373899  MEMB      21              0.0000000000
      2879        27  POPC      H10Y          -19.6805589260       -7.5950875518        2.1370412440  MEMB      21              0.0000000000
      2880        27  POPC      C311          -20.2982273337       -6.1290440903        0.8275452968  MEMB      21              0.0000000000
      2881        27  POPC      H11X          -19.3968499837       -5.5844310692        1.1814341220  MEMB      21              0.0000000000
      2882        27  POPC      H11Y          -21.1548289100       -5.4242531112        0.7657030555  MEMB      21              0.0000000000
      2883        27  POPC      C312          -20.0424265931       -6.7046961577       -0.4950075596  MEMB      21              0.0000000000
      2884        27  POPC      H12X          -20.7799550530       -7.4307806036       -0.8989553258  MEMB      21              0.0000000000
      2885        27  POPC      H12Y          -19.0926350454       -7.2810560011       -0.4898477237  MEMB      21              0.0000000000
      2886        27  POPC      C313          -19.8887515255       -5.6076639329       -1.5689875196  MEMB      21              0.0000000000
      2887        27  POPC      H13X          -20.5931629356       -4.7666500106       -1.3934278084  MEMB      21              0.0000000000
      2888        27  POPC      H13Y          -20.0617178624       -6.0780637954       -2.5605151081  MEMB      21              0.0000000000
      2889        27  POPC      C314          -18.4668841403       -4.9238786901       -1.5974582364  MEMB      21              0.0000000000
      2890        27  POPC      H14X          -18.3513345177       -4.5151628040       -0.5708514153  MEMB      21              0.0000000000
      2891        27  POPC      H14Y          -18.3682068408       -4.0012207996       -2.2084308831  MEMB      21              0.0000000000
      2892        27  POPC      C315          -17.1887233589       -5.7678925274       -1.9103762336  MEMB      21              0.0000000000
      2893        27  POPC      H15X          -17.2414379005       -6.2192685011       -2.9241832274  MEMB      21              0.0000000000
      2894        27  POPC      H15Y          -17.2048369876       -6.6650715660       -1.2552964367  MEMB      21              0.0000000000
      2895        27  POPC      C316          -15.8913198033       -4.9526734153       -1.8222892572  MEMB      21              0.0000000000
      2896        27  POPC      H16X          -15.0414222569       -5.6674056988       -1.8562429874  MEMB      21              0.0000000000
      2897        27  POPC      H16Y          -15.8509912754       -4.5259397158       -0.7973060272  MEMB      21              0.0000000000
      2898        27  POPC      H16Z          -15.7389385945       -4.2600520236       -2.6774963029  MEMB      21              0.0000000000
      2899        28  POPC      N              -4.5365928307      -23.4841491655       18.2874591515  MEMB      22              0.0000000000
      2900        28  POPC      C12            -3.4680098370      -22.5974743450       17.7075690339  MEMB      22              0.0000000000
      2901        28  POPC      H12A           -3.6616881731      -22.3157420028       16.6831104368  MEMB      22              0.0000000000
      2902        28  POPC      H12B           -2.5511757109      -23.1632887672       17.7828639445  MEMB      22              0.0000000000
      2903        28  POPC      C13            -5.9469878656      -22.9264168836       18.1452503837  MEMB      22              0.0000000000
      2904        28  POPC      H13A           -6.1615708172      -22.9472706051       17.0869879329  MEMB      22              0.0000000000
      2905        28  POPC      H13B           -6.5949559564      -23.6682830345       18.5881634427  MEMB      22              0.0000000000
      2906        28  POPC      H13C           -5.9378817031      -21.9558027478       18.6187747641  MEMB      22              0.0000000000
      2907        28  POPC      C14            -4.5076582278      -24.8393058854       17.6420388931  MEMB      22              0.0000000000
      2908        28  POPC      H14A           -3.5622933885      -25.3275059772       17.8273660261  MEMB      22              0.0000000000
      2909        28  POPC      H14B           -5.2942075609      -25.4699083906       18.0294414080  MEMB      22              0.0000000000
      2910        28  POPC      H14C           -4.7483872123      -24.6042533647       16.6157835499  MEMB      22              0.0000000000
      2911        28  POPC      C15            -4.3337943651      -23.5916811658       19.8548474001  MEMB      22              0.0000000000
      2912        28  POPC      H15A           -4.7222966760      -22.7112163218       20.3449978946  MEMB      22              0.0000000000
      2913        28  POPC      H15B           -3.3152106202      -23.8745855980       20.0758734026  MEMB      22              0.0000000000
      2914        28  POPC      H15C           -5.0564447334      -24.3684614012       20.0568094442  MEMB      22              0.0000000000
      2915        28  POPC      C11            -3.1907501794      -21.2625770566       18.3891933199  MEMB      22              0.0000000000
      2916        28  POPC      H11A           -4.1325934731      -20.7236597058       18.6275638703  MEMB      22              0.0000000000
      2917        28  POPC      H11B           -2.5072577902      -20.6893670345       17.7269324601  MEMB      22              0.0000000000
      2918        28  POPC      P              -0.9962165953      -21.2427549928       19.8853393629  MEMB      22              0.0000000000
      2919        28  POPC      O13            -0.4294620718      -22.2189501594       20.8864814706  MEMB      22              0.0000000000
      2920        28  POPC      O14            -0.7437704510      -19.7866229614       20.1021703845  MEMB      22              0.0000000000
      2921        28  POPC      O12            -2.5170102236      -21.5363223998       19.6243906370  MEMB      22              0.0000000000
      2922        28  POPC      O11            -0.2013470862      -21.5436212971       18.4752599654  MEMB      22              0.0000000000
      2923        28  POPC      C1              0.0737700344      -22.9749334921       18.2929707547  MEMB      22              0.0000000000
      2924        28  POPC      HA             -0.8382627382      -23.5958687349       18.4231885144  MEMB      22              0.0000000000
      2925        28  POPC      HB              0.8919530997      -23.2753071895       18.9819360099  MEMB      22              0.0000000000
      2926        28  POPC      C2              0.4069942189      -23.2989545415       16.7713465618  MEMB      22              0.0000000000
      2927        28  POPC      HS              1.5122125976      -23.2719152489       16.6614282856  MEMB      22              0.0000000000
      2928        28  POPC      O21            -0.2580600412      -22.3222119294       15.9888127195  MEMB      22              0.0000000000
      2929        28  POPC      C21             0.3804133038      -21.4673600382       15.1624477899  MEMB      22              0.0000000000
      2930        28  POPC      O22             1.5799278773      -21.4407686677       14.9711995770  MEMB      22              0.0000000000
      2931        28  POPC      C22            -0.7637162860      -20.6447478568       14.4955316846  MEMB      22              0.0000000000
      2932        28  POPC      H2R            -1.4017969000      -20.2562602820       15.3178767678  MEMB      22              0.0000000000
      2933        28  POPC      H2S            -1.3284454042      -21.2120205223       13.7250745666  MEMB      22              0.0000000000
      2934        28  POPC      C3             -0.0840627914      -24.7141139056       16.3695734120  MEMB      22              0.0000000000
      2935        28  POPC      HX             -1.1940612040      -24.7612458108       16.3677724508  MEMB      22              0.0000000000
      2936        28  POPC      HY              0.3348089667      -25.3656810080       17.1660202693  MEMB      22              0.0000000000
      2937        28  POPC      O31             0.4943658846      -25.2191935258       15.1970367090  MEMB      22              0.0000000000
      2938        28  POPC      C31            -0.0866008129      -24.7474594986       14.0067070684  MEMB      22              0.0000000000
      2939        28  POPC      O32            -1.1666841183      -24.1725007141       13.8225303549  MEMB      22              0.0000000000
      2940        28  POPC      C32             0.9438305458      -25.0978098765       12.9038048750  MEMB      22              0.0000000000
      2941        28  POPC      H2X             1.0320385305      -26.2032592841       12.8365622624  MEMB      22              0.0000000000
      2942        28  POPC      H2Y             1.9190502992      -24.6718710855       13.2229337785  MEMB      22              0.0000000000
      2943        28  POPC      C23            -0.1839720202      -19.4893652622       13.6236055248  MEMB      22              0.0000000000
      2944        28  POPC      H3R             0.3625826742      -20.0197700189       12.8147363799  MEMB      22              0.0000000000
      2945        28  POPC      H3S             0.5585022760      -18.9897033376       14.2819300886  MEMB      22              0.0000000000
      2946        28  POPC      C24            -1.1755103645      -18.4003511272       13.1373072522  MEMB      22              0.0000000000
      2947        28  POPC      H4R            -1.6516242143      -17.7950560506       13.9380906932  MEMB      22              0.0000000000
      2948        28  POPC      H4S            -1.9866736082      -18.9302905771       12.5937086110  MEMB      22              0.0000000000
      2949        28  POPC      C25            -0.6040844393      -17.5930983399       11.9740021654  MEMB      22              0.0000000000
      2950        28  POPC      H5R             0.3640450965      -17.1213240724       12.2469030065  MEMB      22              0.0000000000
      2951        28  POPC      H5S            -1.4195005698      -16.8396625083       11.9321444573  MEMB      22              0.0000000000
      2952        28  POPC      C26            -0.5020697028      -18.4038841122       10.6555963782  MEMB      22              0.0000000000
      2953        28  POPC      H6R            -1.3888085079      -18.9525951866       10.2722796522  MEMB      22              0.0000000000
      2954        28  POPC      H6S             0.3934353029      -19.0326239841       10.8481526803  MEMB      22              0.0000000000
      2955        28  POPC      C27             0.0791031627      -17.5343306079        9.4469118989  MEMB      22              0.0000000000
      2956        28  POPC      H7R             1.0430781644      -17.0924226744        9.7782586723  MEMB      22              0.0000000000
      2957        28  POPC      H7S            -0.6555918077      -16.7232272786        9.2554536955  MEMB      22              0.0000000000
      2958        28  POPC      C28             0.1421898281      -18.3491884252        8.0750348073  MEMB      22              0.0000000000
      2959        28  POPC      H8R             0.4860782231      -17.6358344551        7.2958129095  MEMB      22              0.0000000000
      2960        28  POPC      H8S            -0.8812804388      -18.7479689514        7.9082926706  MEMB      22              0.0000000000
      2961        28  POPC      C29             1.2934250387      -19.3777193300        8.1715892455  MEMB      22              0.0000000000
      2962        28  POPC      H91             2.2254078418      -18.8206909596        8.3480206331  MEMB      22              0.0000000000
      2963        28  POPC      C210            1.2175058091      -20.7063691984        7.9834348437  MEMB      22              0.0000000000
      2964        28  POPC      H101            2.1340417059      -21.2994914214        7.8486450252  MEMB      22              0.0000000000
      2965        28  POPC      C211            0.0498005824      -21.5676858178        7.6429250864  MEMB      22              0.0000000000
      2966        28  POPC      H11R           -0.7846782310      -21.4561711772        8.3678595313  MEMB      22              0.0000000000
      2967        28  POPC      H11S            0.3555582714      -22.6251359095        7.7933656639  MEMB      22              0.0000000000
      2968        28  POPC      C212           -0.6688364313      -21.3706551432        6.3020147505  MEMB      22              0.0000000000
      2969        28  POPC      H12R           -1.0051064375      -20.3177500479        6.1896122674  MEMB      22              0.0000000000
      2970        28  POPC      H12S           -1.6011941912      -21.9700565893        6.3778296615  MEMB      22              0.0000000000
      2971        28  POPC      C213            0.0383136984      -21.9689419326        5.1458123390  MEMB      22              0.0000000000
      2972        28  POPC      H13R           -0.0297947393      -23.0680430412        5.2929819351  MEMB      22              0.0000000000
      2973        28  POPC      H13S            1.1030242018      -21.6801399105        5.0142602974  MEMB      22              0.0000000000
      2974        28  POPC      C214           -0.6487896144      -21.5425992986        3.7520583142  MEMB      22              0.0000000000
      2975        28  POPC      H14R           -1.7057913617      -21.3580489416        4.0401724212  MEMB      22              0.0000000000
      2976        28  POPC      H14S           -0.5077657010      -22.3218547621        2.9728326794  MEMB      22              0.0000000000
      2977        28  POPC      C215           -0.1405096077      -20.2023397793        3.2214213290  MEMB      22              0.0000000000
      2978        28  POPC      H15R            0.9654611160      -20.2863617340        3.1574652686  MEMB      22              0.0000000000
      2979        28  POPC      H15S           -0.3266351530      -19.4006920246        3.9677717160  MEMB      22              0.0000000000
      2980        28  POPC      C216           -0.7767570033      -19.7328097628        1.9121270572  MEMB      22              0.0000000000
      2981        28  POPC      H16R           -0.7390342126      -20.5916767297        1.2083901829  MEMB      22              0.0000000000
      2982        28  POPC      H16S           -0.1784454502      -18.9073210298        1.4706377433  MEMB      22              0.0000000000
      2983        28  POPC      C217           -2.2249978223      -19.2194959935        2.0518074011  MEMB      22              0.0000000000
      2984        28  POPC      H17R           -2.3613892820      -18.4364932637        2.8280979547  MEMB      22              0.0000000000
      2985        28  POPC      H17S           -2.7272020795      -20.1321710290        2.4379891765  MEMB      22              0.0000000000
      2986        28  POPC      C218           -2.8819656474      -18.8330477382        0.7337346778  MEMB      22              0.0000000000
      2987        28  POPC      H18R           -3.0067494652      -19.6869490073        0.0340182288  MEMB      22              0.0000000000
      2988        28  POPC      H18S           -2.2704347383      -17.9797065236        0.3701961534  MEMB      22              0.0000000000
      2989        28  POPC      H18T           -3.8667578977      -18.4897041881        1.1166445320  MEMB      22              0.0000000000
      2990        28  POPC      C33             0.5970710168      -24.4136635699       11.5611217027  MEMB      22              0.0000000000
      2991        28  POPC      H3X             1.4788221251      -24.3631053668       10.8871190573  MEMB      22              0.0000000000
      2992        28  POPC      H3Y             0.2256616860      -23.3667475179       11.5796447919  MEMB      22              0.0000000000
      2993        28  POPC      C34            -0.4688138469      -25.1868095267       10.7126883764  MEMB      22              0.0000000000
      2994        28  POPC      H4X            -1.3629443607      -25.4609107643       11.3124552595  MEMB      22              0.0000000000
      2995        28  POPC      H4Y            -0.0397540919      -26.2036827987       10.5854193278  MEMB      22              0.0000000000
      2996        28  POPC      C35            -0.7863277639      -24.7123529118        9.2896811443  MEMB      22              0.0000000000
      2997        28  POPC      H5X             0.2163034677      -24.8115196065        8.8214752290  MEMB      22              0.0000000000
      2998        28  POPC      H5Y            -1.1773409245      -23.6741497068        9.2299827888  MEMB      22              0.0000000000
      2999        28  POPC      C36            -1.8491681982      -25.6437950586        8.5672791984  MEMB      22              0.0000000000
      3000        28  POPC      H6X            -2.7932238334      -25.4572298505        9.1225035624  MEMB      22              0.0000000000
      3001        28  POPC      H6Y            -1.5280255253      -26.6922919574        8.7457243170  MEMB      22              0.0000000000
      3002        28  POPC      C37            -1.8380581108      -25.4615442693        7.0289114745  MEMB      22              0.0000000000
      3003        28  POPC      H7X            -0.7808423076      -25.5762891923        6.7072759103  MEMB      22              0.0000000000
      3004        28  POPC      H7Y            -2.2519084872      -24.4446684681        6.8585813290  MEMB      22              0.0000000000
      3005        28  POPC      C38            -2.6738945081      -26.5706002527        6.4347794524  MEMB      22              0.0000000000
      3006        28  POPC      H8X            -3.7422869021      -26.4552658230        6.7168370964  MEMB      22              0.0000000000
      3007        28  POPC      H8Y            -2.3729103494      -27.5834947420        6.7779619816  MEMB      22              0.0000000000
      3008        28  POPC      C39            -2.4486597824      -26.8028317105        4.9352758265  MEMB      22              0.0000000000
      3009        28  POPC      H9X            -3.1516663494      -27.6291336052        4.6958432114  MEMB      22              0.0000000000
      3010        28  POPC      H9Y            -1.3947520348      -27.1351235034        4.8204642619  MEMB      22              0.0000000000
      3011        28  POPC      C310           -2.4857939973      -25.5066895584        4.0295910431  MEMB      22              0.0000000000
      3012        28  POPC      H10X           -1.6742544570      -24.7973920612        4.2990753857  MEMB      22              0.0000000000
      3013        28  POPC      H10Y           -3.4607832139      -25.0398282183        4.2860230710  MEMB      22              0.0000000000
      3014        28  POPC      C311           -2.2545663411      -25.8022031657        2.5239520358  MEMB      22              0.0000000000
      3015        28  POPC      H11X           -3.0124250100      -26.5424392546        2.1892544933  MEMB      22              0.0000000000
      3016        28  POPC      H11Y           -1.3130251740      -26.3598663203        2.3320318151  MEMB      22              0.0000000000
      3017        28  POPC      C312           -2.2415719867      -24.6207067490        1.6456191441  MEMB      22              0.0000000000
      3018        28  POPC      H12X           -1.5972908959      -23.8679824863        2.1482421144  MEMB      22              0.0000000000
      3019        28  POPC      H12Y           -3.2596330438      -24.1815584901        1.5747558100  MEMB      22              0.0000000000
      3020        28  POPC      C313           -1.8114016009      -24.9457531142        0.2022178870  MEMB      22              0.0000000000
      3021        28  POPC      H13X           -2.7625659784      -25.1407798152       -0.3377565581  MEMB      22              0.0000000000
      3022        28  POPC      H13Y           -1.1630979080      -25.8324536836        0.0355272951  MEMB      22              0.0000000000
      3023        28  POPC      C314           -1.0569749609      -23.7736247418       -0.5439530956  MEMB      22              0.0000000000
      3024        28  POPC      H14X           -0.8992387113      -24.0462346001       -1.6093740899  MEMB      22              0.0000000000
      3025        28  POPC      H14Y           -0.1169864764      -23.6394354852        0.0328805604  MEMB      22              0.0000000000
      3026        28  POPC      C315           -1.8158214850      -22.4782740241       -0.7117424924  MEMB      22              0.0000000000
      3027        28  POPC      H15X           -1.1715516217      -21.6383175740       -1.0489512978  MEMB      22              0.0000000000
      3028        28  POPC      H15Y           -2.3155845312      -22.1606066364        0.2282814456  MEMB      22              0.0000000000
      3029        28  POPC      C316           -2.9340968555      -22.5689212313       -1.7385804242  MEMB      22              0.0000000000
      3030        28  POPC      H16X           -2.4237874101      -22.6913424945       -2.7178231839  MEMB      22              0.0000000000
      3031        28  POPC      H16Y           -3.5186467599      -21.6241344538       -1.7381055725  MEMB      22              0.0000000000
      3032        28  POPC      H16Z           -3.6211273176      -23.3663229831       -1.3829676479  MEMB      22              0.0000000000
      3033        29  POPC      N              16.0945999102      -12.5057157244       19.8677495915  MEMB      23              0.0000000000
      3034        29  POPC      C12            16.5475359874      -13.0547633017       18.4936506704  MEMB      23              0.0000000000
      3035        29  POPC      H12A           15.6636300731      -12.9679071350       17.8791865237  MEMB      23              0.0000000000
      3036        29  POPC      H12B           16.6812534062      -14.1260840751       18.5217844290  MEMB      23              0.0000000000
      3037        29  POPC      C13            14.7586888800      -13.0853661528       20.1791509520  MEMB      23              0.0000000000
      3038        29  POPC      H13A           14.0159284638      -12.7337864040       19.4783667830  MEMB      23              0.0000000000
      3039        29  POPC      H13B           14.7848842816      -14.1631493662       20.1151413199  MEMB      23              0.0000000000
      3040        29  POPC      H13C           14.3294494979      -12.7637089965       21.1165357179  MEMB      23              0.0000000000
      3041        29  POPC      C14            17.0138376478      -12.9781804176       20.9995883996  MEMB      23              0.0000000000
      3042        29  POPC      H14A           17.9893907620      -12.5904259889       20.7459299483  MEMB      23              0.0000000000
      3043        29  POPC      H14B           16.8492244303      -12.5818762503       21.9906712921  MEMB      23              0.0000000000
      3044        29  POPC      H14C           16.9686140710      -14.0560265965       21.0506021394  MEMB      23              0.0000000000
      3045        29  POPC      C15            16.1470996212      -10.9473281731       19.8384060604  MEMB      23              0.0000000000
      3046        29  POPC      H15A           17.1082235629      -10.6581839783       19.4396121385  MEMB      23              0.0000000000
      3047        29  POPC      H15B           15.9067604793      -10.5581035556       20.8167419570  MEMB      23              0.0000000000
      3048        29  POPC      H15C           15.4215713921      -10.6191045162       19.1088321997  MEMB      23              0.0000000000
      3049        29  POPC      C11            17.7706830498      -12.4107792599       17.7806922637  MEMB      23              0.0000000000
      3050        29  POPC      H11A           17.6632583158      -11.3194209907       17.6025961426  MEMB      23              0.0000000000
      3051        29  POPC      H11B           17.8712283751      -12.7701929249       16.7342536919  MEMB      23              0.0000000000
      3052        29  POPC      P              19.6791371664      -13.9588969129       18.3841768824  MEMB      23              0.0000000000
      3053        29  POPC      O13            20.2033889405      -14.3128833930       19.7558504926  MEMB      23              0.0000000000
      3054        29  POPC      O14            20.6985372561      -13.9370379937       17.3107084812  MEMB      23              0.0000000000
      3055        29  POPC      O12            18.9632225240      -12.5917664783       18.5270176515  MEMB      23              0.0000000000
      3056        29  POPC      O11            18.5011760197      -14.9297324207       17.8630085434  MEMB      23              0.0000000000
      3057        29  POPC      C1             18.1332403264      -16.1365716098       18.5385375309  MEMB      23              0.0000000000
      3058        29  POPC      HA             17.5140473967      -15.8734028425       19.4226547858  MEMB      23              0.0000000000
      3059        29  POPC      HB             19.0306217673      -16.6376506577       18.9603757419  MEMB      23              0.0000000000
      3060        29  POPC      C2             17.4135350426      -17.2090423163       17.6984290545  MEMB      23              0.0000000000
      3061        29  POPC      HS             17.5468852014      -18.1495091426       18.2746766720  MEMB      23              0.0000000000
      3062        29  POPC      O21            17.9621537231      -17.2689294474       16.3880344965  MEMB      23              0.0000000000
      3063        29  POPC      C21            19.2081423826      -17.6818906122       16.2996551254  MEMB      23              0.0000000000
      3064        29  POPC      O22            19.8411939072      -18.1729006612       17.1885262857  MEMB      23              0.0000000000
      3065        29  POPC      C22            19.5423120085      -17.8592951468       14.8021853647  MEMB      23              0.0000000000
      3066        29  POPC      H2R            18.6576540306      -17.9797250097       14.1409760856  MEMB      23              0.0000000000
      3067        29  POPC      H2S            20.1604170009      -18.7783705489       14.7151939536  MEMB      23              0.0000000000
      3068        29  POPC      C3             15.9220412653      -16.9492410492       17.5376529089  MEMB      23              0.0000000000
      3069        29  POPC      HX             15.6034788268      -16.8773705586       18.5995726490  MEMB      23              0.0000000000
      3070        29  POPC      HY             15.3287427882      -17.7523469943       17.0504789096  MEMB      23              0.0000000000
      3071        29  POPC      O31            15.6377809529      -15.6151294469       16.9698464995  MEMB      23              0.0000000000
      3072        29  POPC      C31            15.3007968631      -15.5611454563       15.7353614140  MEMB      23              0.0000000000
      3073        29  POPC      O32            15.2012769053      -16.5132687929       14.9572528858  MEMB      23              0.0000000000
      3074        29  POPC      C32            14.9739479123      -14.0664100368       15.4702842127  MEMB      23              0.0000000000
      3075        29  POPC      H2X            15.7418851090      -13.3243224666       15.7767143244  MEMB      23              0.0000000000
      3076        29  POPC      H2Y            14.0509979685      -13.7747673442       16.0156545900  MEMB      23              0.0000000000
      3077        29  POPC      C23            20.5187046153      -16.7323913918       14.2721755409  MEMB      23              0.0000000000
      3078        29  POPC      H3R            20.9463821988      -16.9975136620       13.2816587781  MEMB      23              0.0000000000
      3079        29  POPC      H3S            21.4254172982      -16.5713959529       14.8936846773  MEMB      23              0.0000000000
      3080        29  POPC      C24            19.8607832840      -15.3035796265       14.0678725507  MEMB      23              0.0000000000
      3081        29  POPC      H4R            20.6033080748      -14.5727162450       13.6821049662  MEMB      23              0.0000000000
      3082        29  POPC      H4S            19.4553052909      -15.0506658983       15.0708396354  MEMB      23              0.0000000000
      3083        29  POPC      C25            18.6292544886      -15.2476385965       13.1095414344  MEMB      23              0.0000000000
      3084        29  POPC      H5R            18.1441683598      -14.2612419813       13.2708923535  MEMB      23              0.0000000000
      3085        29  POPC      H5S            17.7860642021      -15.9378404676       13.3262734245  MEMB      23              0.0000000000
      3086        29  POPC      C26            19.1061890679      -15.5840130154       11.6672956101  MEMB      23              0.0000000000
      3087        29  POPC      H6R            18.2242616644      -15.5357253091       10.9933567957  MEMB      23              0.0000000000
      3088        29  POPC      H6S            19.5916148611      -16.5829248496       11.6380032735  MEMB      23              0.0000000000
      3089        29  POPC      C27            20.0723034657      -14.5355575095       11.0958902916  MEMB      23              0.0000000000
      3090        29  POPC      H7R            21.1080490315      -14.8016640827       11.3971199457  MEMB      23              0.0000000000
      3091        29  POPC      H7S            19.9094271207      -13.5062250242       11.4809448354  MEMB      23              0.0000000000
      3092        29  POPC      C28            20.0598860071      -14.4542273869        9.5645461715  MEMB      23              0.0000000000
      3093        29  POPC      H8R            20.8497859517      -13.7590102809        9.2081025500  MEMB      23              0.0000000000
      3094        29  POPC      H8S            19.0687195786      -14.1295096622        9.1818344832  MEMB      23              0.0000000000
      3095        29  POPC      C29            20.2214861898      -15.7164851916        8.8356844256  MEMB      23              0.0000000000
      3096        29  POPC      H91            19.8798287980      -16.6372361042        9.3311519154  MEMB      23              0.0000000000
      3097        29  POPC      C210           20.8887267270      -15.9168238354        7.7053626977  MEMB      23              0.0000000000
      3098        29  POPC      H101           20.8104562289      -16.9323176581        7.2898556067  MEMB      23              0.0000000000
      3099        29  POPC      C211           21.6944274298      -14.9310861619        6.7475242458  MEMB      23              0.0000000000
      3100        29  POPC      H11R           22.6943252892      -15.3886345626        6.5888570759  MEMB      23              0.0000000000
      3101        29  POPC      H11S           21.7168395718      -13.8880356988        7.1294456844  MEMB      23              0.0000000000
      3102        29  POPC      C212           21.0610353559      -14.8977033247        5.3146262453  MEMB      23              0.0000000000
      3103        29  POPC      H12R           21.7850287869      -14.3502306196        4.6739789171  MEMB      23              0.0000000000
      3104        29  POPC      H12S           20.1840711348      -14.2178905286        5.3703880097  MEMB      23              0.0000000000
      3105        29  POPC      C213           20.7668310006      -16.2609575754        4.6632786288  MEMB      23              0.0000000000
      3106        29  POPC      H13R           20.0142490787      -16.7206481851        5.3390195789  MEMB      23              0.0000000000
      3107        29  POPC      H13S           21.7114140375      -16.8344172203        4.5482641175  MEMB      23              0.0000000000
      3108        29  POPC      C214           20.1088443320      -16.3159808561        3.2771664208  MEMB      23              0.0000000000
      3109        29  POPC      H14R           19.5499617780      -15.3786826434        3.0687360431  MEMB      23              0.0000000000
      3110        29  POPC      H14S           19.4362104834      -17.2002186167        3.2742884028  MEMB      23              0.0000000000
      3111        29  POPC      C215           21.1038898862      -16.4866825710        2.0600147582  MEMB      23              0.0000000000
      3112        29  POPC      H15R           21.8460015578      -17.2886122600        2.2612606292  MEMB      23              0.0000000000
      3113        29  POPC      H15S           21.7262482145      -15.5666633425        2.0835853279  MEMB      23              0.0000000000
      3114        29  POPC      C216           20.4202469620      -16.5928564429        0.6975736458  MEMB      23              0.0000000000
      3115        29  POPC      H16R           21.0962184632      -16.1888109773       -0.0860909957  MEMB      23              0.0000000000
      3116        29  POPC      H16S           19.5673699975      -15.8808734700        0.6989800442  MEMB      23              0.0000000000
      3117        29  POPC      C217           19.8882475620      -18.0237206480        0.2308941071  MEMB      23              0.0000000000
      3118        29  POPC      H17R           20.7517468698      -18.6973299158        0.0439713382  MEMB      23              0.0000000000
      3119        29  POPC      H17S           19.3941105444      -17.8359537717       -0.7462915594  MEMB      23              0.0000000000
      3120        29  POPC      C218           18.9202638934      -18.6423323349        1.1362097221  MEMB      23              0.0000000000
      3121        29  POPC      H18R           19.4211357480      -19.0085064261        2.0578185664  MEMB      23              0.0000000000
      3122        29  POPC      H18S           18.4031950399      -19.5375098248        0.7292479803  MEMB      23              0.0000000000
      3123        29  POPC      H18T           18.1980694897      -17.8417440115        1.4041911801  MEMB      23              0.0000000000
      3124        29  POPC      C33            14.7556950530      -13.7282906513       13.9677202722  MEMB      23              0.0000000000
      3125        29  POPC      H3X            13.8396340767      -14.2607696122       13.6336258747  MEMB      23              0.0000000000
      3126        29  POPC      H3Y            15.5601762999      -14.0123101743       13.2560574662  MEMB      23              0.0000000000
      3127        29  POPC      C34            14.5431137104      -12.2386948200       13.5029927277  MEMB      23              0.0000000000
      3128        29  POPC      H4X            15.5192789480      -11.7608911719       13.7334834961  MEMB      23              0.0000000000
      3129        29  POPC      H4Y            13.7544366259      -11.7085622619       14.0785517952  MEMB      23              0.0000000000
      3130        29  POPC      C35            14.0021273319      -12.2151948379       12.0902989849  MEMB      23              0.0000000000
      3131        29  POPC      H5X            13.3091550632      -11.3528055251       11.9883417671  MEMB      23              0.0000000000
      3132        29  POPC      H5Y            13.2719297237      -13.0474229309       11.9979474170  MEMB      23              0.0000000000
      3133        29  POPC      C36            14.9800364355      -12.3302086215       10.9651480869  MEMB      23              0.0000000000
      3134        29  POPC      H6X            15.6058924298      -13.2035407810       11.2478425940  MEMB      23              0.0000000000
      3135        29  POPC      H6Y            15.6158141201      -11.4302019697       11.1069069294  MEMB      23              0.0000000000
      3136        29  POPC      C37            14.4670650867      -12.5070660170        9.4607220938  MEMB      23              0.0000000000
      3137        29  POPC      H7X            13.9961188671      -11.5683748972        9.0982448315  MEMB      23              0.0000000000
      3138        29  POPC      H7Y            13.6792930179      -13.2849827628        9.5533598889  MEMB      23              0.0000000000
      3139        29  POPC      C38            15.4486520915      -13.1517203811        8.4882256288  MEMB      23              0.0000000000
      3140        29  POPC      H8X            15.7709542117      -14.1721588156        8.7868019336  MEMB      23              0.0000000000
      3141        29  POPC      H8Y            16.2881999198      -12.4269900710        8.4230608766  MEMB      23              0.0000000000
      3142        29  POPC      C39            14.8338043846      -13.2637496832        7.0571472005  MEMB      23              0.0000000000
      3143        29  POPC      H9X            14.6178266212      -12.2118667889        6.7721610624  MEMB      23              0.0000000000
      3144        29  POPC      H9Y            13.9929894333      -13.9520956217        7.2885154410  MEMB      23              0.0000000000
      3145        29  POPC      C310           15.8456553488      -13.8315061773        6.0625589095  MEMB      23              0.0000000000
      3146        29  POPC      H10X           15.9481949720      -14.9143039302        6.2891767952  MEMB      23              0.0000000000
      3147        29  POPC      H10Y           16.8238463841      -13.3569852617        6.2912356775  MEMB      23              0.0000000000
      3148        29  POPC      C311           15.4149254036      -13.7955525198        4.5535561101  MEMB      23              0.0000000000
      3149        29  POPC      H11X           14.8723383624      -12.8716869186        4.2596298017  MEMB      23              0.0000000000
      3150        29  POPC      H11Y           14.5889272882      -14.5129799359        4.3603043833  MEMB      23              0.0000000000
      3151        29  POPC      C312           16.5159576130      -14.1932821154        3.5986611747  MEMB      23              0.0000000000
      3152        29  POPC      H12X           16.9243004850      -15.2007690443        3.8278921789  MEMB      23              0.0000000000
      3153        29  POPC      H12Y           17.3040574438      -13.4208038350        3.7271014466  MEMB      23              0.0000000000
      3154        29  POPC      C313           16.0983135619      -14.1110227279        2.1090021860  MEMB      23              0.0000000000
      3155        29  POPC      H13X           15.5362376179      -13.2323494804        1.7264777284  MEMB      23              0.0000000000
      3156        29  POPC      H13Y           15.3669524473      -14.9351303114        1.9666006984  MEMB      23              0.0000000000
      3157        29  POPC      C314           17.1929787435      -14.3532196027        1.0726404138  MEMB      23              0.0000000000
      3158        29  POPC      H14X           17.6377859511      -15.3265597852        1.3710963265  MEMB      23              0.0000000000
      3159        29  POPC      H14Y           17.9799523935      -13.5923816859        1.2626912868  MEMB      23              0.0000000000
      3160        29  POPC      C315           16.7265869220      -14.3378035087       -0.3776375100  MEMB      23              0.0000000000
      3161        29  POPC      H15X           16.0372023268      -13.5027019488       -0.6259835180  MEMB      23              0.0000000000
      3162        29  POPC      H15Y           16.1554416882      -15.2181680957       -0.7424278590  MEMB      23              0.0000000000
      3163        29  POPC      C316           17.8609531486      -14.3532084145       -1.3965511166  MEMB      23              0.0000000000
      3164        29  POPC      H16X           18.5055119816      -13.4718325917       -1.1915090222  MEMB      23              0.0000000000
      3165        29  POPC      H16Y           17.4818966600      -14.0931123068       -2.4079795166  MEMB      23              0.0000000000
      3166        29  POPC      H16Z           18.3943176718      -15.3266020480       -1.3480927178  MEMB      23              0.0000000000
      3167        30  POPC      N              -8.7185918130      -18.7049949634       19.5329680109  MEMB      24              0.0000000000
      3168        30  POPC      C12            -9.9428846235      -18.3284968950       18.6219085686  MEMB      24              0.0000000000
      3169        30  POPC      H12A           -9.5017187370      -18.0439129838       17.6780946923  MEMB      24              0.0000000000
      3170        30  POPC      H12B          -10.4844108351      -17.5328463519       19.1118981134  MEMB      24              0.0000000000
      3171        30  POPC      C13            -9.1373472741      -19.3830116609       20.8230189947  MEMB      24              0.0000000000
      3172        30  POPC      H13A           -8.3488171839      -19.6725374326       21.5018377396  MEMB      24              0.0000000000
      3173        30  POPC      H13B           -9.7925496702      -18.6744954879       21.3079051338  MEMB      24              0.0000000000
      3174        30  POPC      H13C           -9.6894399984      -20.2549881977       20.5048197420  MEMB      24              0.0000000000
      3175        30  POPC      C14            -7.7557253193      -19.6158833672       18.7539299834  MEMB      24              0.0000000000
      3176        30  POPC      H14A           -8.2274374409      -20.5375213495       18.4465682995  MEMB      24              0.0000000000
      3177        30  POPC      H14B           -7.4829939194      -19.1658442113       17.8108062042  MEMB      24              0.0000000000
      3178        30  POPC      H14C           -6.8221865688      -19.7480994363       19.2806405050  MEMB      24              0.0000000000
      3179        30  POPC      C15            -7.9547095115      -17.4475960074       19.9468482653  MEMB      24              0.0000000000
      3180        30  POPC      H15A           -7.0500107449      -17.6738052012       20.4915953919  MEMB      24              0.0000000000
      3181        30  POPC      H15B           -8.5394270230      -16.7235899911       20.4948636205  MEMB      24              0.0000000000
      3182        30  POPC      H15C           -7.5154775573      -17.0153366613       19.0599282222  MEMB      24              0.0000000000
      3183        30  POPC      C11           -10.7326451411      -19.5034296522       18.1042709339  MEMB      24              0.0000000000
      3184        30  POPC      H11A          -10.1201745294      -20.2546360732       17.5612334317  MEMB      24              0.0000000000
      3185        30  POPC      H11B          -11.4728577264      -19.2605014507       17.3121899975  MEMB      24              0.0000000000
      3186        30  POPC      P             -12.5737309253      -21.2460919154       18.6719683868  MEMB      24              0.0000000000
      3187        30  POPC      O13           -13.4647887230      -20.6624251367       17.6583646507  MEMB      24              0.0000000000
      3188        30  POPC      O14           -13.1372054099      -21.7457521565       19.9311026753  MEMB      24              0.0000000000
      3189        30  POPC      O12           -11.4438095236      -20.1781053118       19.1168605157  MEMB      24              0.0000000000
      3190        30  POPC      O11           -11.8070375819      -22.3298697362       17.8387590190  MEMB      24              0.0000000000
      3191        30  POPC      C1            -11.4502595043      -23.5605361545       18.3796108672  MEMB      24              0.0000000000
      3192        30  POPC      HA            -12.3507468352      -24.0249664939       18.8354046833  MEMB      24              0.0000000000
      3193        30  POPC      HB            -10.6881092339      -23.3786789850       19.1672503609  MEMB      24              0.0000000000
      3194        30  POPC      C2            -10.8439361767      -24.4085619557       17.2825850035  MEMB      24              0.0000000000
      3195        30  POPC      HS            -10.1604577416      -25.1150971842       17.8002588722  MEMB      24              0.0000000000
      3196        30  POPC      O21           -10.1172068123      -23.6694342903       16.2875885159  MEMB      24              0.0000000000
      3197        30  POPC      C21            -8.8886016448      -23.4094482476       16.6191903891  MEMB      24              0.0000000000
      3198        30  POPC      O22            -8.2437533083      -23.8024413818       17.6311513366  MEMB      24              0.0000000000
      3199        30  POPC      C22            -8.1765863168      -22.6787180153       15.5013650207  MEMB      24              0.0000000000
      3200        30  POPC      H2R            -7.2004212287      -23.1744734408       15.3125553513  MEMB      24              0.0000000000
      3201        30  POPC      H2S            -7.9324042119      -21.6262736715       15.7603183581  MEMB      24              0.0000000000
      3202        30  POPC      C3            -11.9302510686      -25.2117842237       16.6238580080  MEMB      24              0.0000000000
      3203        30  POPC      HX            -12.5124338860      -25.8292322161       17.3408949412  MEMB      24              0.0000000000
      3204        30  POPC      HY            -11.4540680067      -25.9425922186       15.9357515030  MEMB      24              0.0000000000
      3205        30  POPC      O31           -12.8542029843      -24.4104686761       15.8371116760  MEMB      24              0.0000000000
      3206        30  POPC      C31           -12.6310013317      -24.3368168662       14.5041877615  MEMB      24              0.0000000000
      3207        30  POPC      O32           -11.8916283143      -25.0486940223       13.8537614452  MEMB      24              0.0000000000
      3208        30  POPC      C32           -13.5153327707      -23.1703029867       13.8260191713  MEMB      24              0.0000000000
      3209        30  POPC      H2X           -13.3770757496      -22.2974765268       14.4993540909  MEMB      24              0.0000000000
      3210        30  POPC      H2Y           -14.5367534068      -23.5563295337       14.0309675428  MEMB      24              0.0000000000
      3211        30  POPC      C23            -8.9908926131      -22.6237630473       14.2210345735  MEMB      24              0.0000000000
      3212        30  POPC      H3R            -9.9809557227      -22.1807533085       14.4615309704  MEMB      24              0.0000000000
      3213        30  POPC      H3S            -9.2068288814      -23.6610014443       13.8866257233  MEMB      24              0.0000000000
      3214        30  POPC      C24            -8.3984766304      -21.7220171218       13.1531660480  MEMB      24              0.0000000000
      3215        30  POPC      H4R            -7.3412962419      -22.0190168754       12.9844005476  MEMB      24              0.0000000000
      3216        30  POPC      H4S            -8.3241193076      -20.6304588188       13.3462790192  MEMB      24              0.0000000000
      3217        30  POPC      C25            -9.1328618185      -21.8323688272       11.8353212005  MEMB      24              0.0000000000
      3218        30  POPC      H5R           -10.0866877206      -21.3025242182       12.0446106019  MEMB      24              0.0000000000
      3219        30  POPC      H5S            -9.4134236438      -22.8699799961       11.5543072866  MEMB      24              0.0000000000
      3220        30  POPC      C26            -8.4985326816      -21.0639939692       10.6941611340  MEMB      24              0.0000000000
      3221        30  POPC      H6R            -7.5779772420      -21.6017148870       10.3815022763  MEMB      24              0.0000000000
      3222        30  POPC      H6S            -8.1985709409      -20.0899956257       11.1365076926  MEMB      24              0.0000000000
      3223        30  POPC      C27            -9.4380974932      -20.8898220236        9.4961052805  MEMB      24              0.0000000000
      3224        30  POPC      H7R           -10.4414174597      -20.5552443171        9.8362934386  MEMB      24              0.0000000000
      3225        30  POPC      H7S            -9.7774949048      -21.9202577131        9.2566626519  MEMB      24              0.0000000000
      3226        30  POPC      C28            -8.9660422355      -20.1128204110        8.3050624418  MEMB      24              0.0000000000
      3227        30  POPC      H8R            -9.7352072149      -20.3168104326        7.5297598208  MEMB      24              0.0000000000
      3228        30  POPC      H8S            -8.0840697202      -20.6876276150        7.9500393255  MEMB      24              0.0000000000
      3229        30  POPC      C29            -8.5759695258      -18.6078961544        8.3563443102  MEMB      24              0.0000000000
      3230        30  POPC      H91            -7.5375830621      -18.3479467604        8.6096821309  MEMB      24              0.0000000000
      3231        30  POPC      C210           -9.3961452011      -17.6118984331        8.0424550329  MEMB      24              0.0000000000
      3232        30  POPC      H101           -8.8815215880      -16.6412138915        7.9882884344  MEMB      24              0.0000000000
      3233        30  POPC      C211          -10.8246476781      -17.6458831534        7.5936071550  MEMB      24              0.0000000000
      3234        30  POPC      H11R          -11.4191886441      -16.9988485508        8.2734514835  MEMB      24              0.0000000000
      3235        30  POPC      H11S          -11.2476581521      -18.6413538518        7.8474209894  MEMB      24              0.0000000000
      3236        30  POPC      C212          -11.2417493531      -17.2177073274        6.1827845115  MEMB      24              0.0000000000
      3237        30  POPC      H12R          -11.0037026124      -16.1331115526        6.1466282552  MEMB      24              0.0000000000
      3238        30  POPC      H12S          -12.3068356898      -17.4806654356        6.0073845283  MEMB      24              0.0000000000
      3239        30  POPC      C213          -10.3213325075      -17.8720849104        5.1808998578  MEMB      24              0.0000000000
      3240        30  POPC      H13R          -10.4333048090      -18.9773788124        5.1913482803  MEMB      24              0.0000000000
      3241        30  POPC      H13S           -9.2378642744      -17.6763151645        5.3295329074  MEMB      24              0.0000000000
      3242        30  POPC      C214          -10.7896323754      -17.5101045521        3.7487597579  MEMB      24              0.0000000000
      3243        30  POPC      H14R          -10.8287088037      -16.4017601524        3.6826847498  MEMB      24              0.0000000000
      3244        30  POPC      H14S          -11.7772919641      -17.9981711917        3.6050921650  MEMB      24              0.0000000000
      3245        30  POPC      C215           -9.9574756070      -18.1122973249        2.6421991756  MEMB      24              0.0000000000
      3246        30  POPC      H15R           -9.9091807025      -19.2098497611        2.8076312951  MEMB      24              0.0000000000
      3247        30  POPC      H15S           -8.9491492354      -17.6505248077        2.7082696775  MEMB      24              0.0000000000
      3248        30  POPC      C216          -10.6232353091      -17.7852083990        1.3015073055  MEMB      24              0.0000000000
      3249        30  POPC      H16R          -10.7704779428      -16.6900875569        1.1859607146  MEMB      24              0.0000000000
      3250        30  POPC      H16S          -11.6324375463      -18.2385972242        1.4028517558  MEMB      24              0.0000000000
      3251        30  POPC      C217           -9.9959074770      -18.4935449265        0.0931448250  MEMB      24              0.0000000000
      3252        30  POPC      H17R           -9.9319761579      -19.5581745837        0.4042672505  MEMB      24              0.0000000000
      3253        30  POPC      H17S           -8.9818278897      -18.0576488605       -0.0331794539  MEMB      24              0.0000000000
      3254        30  POPC      C218          -10.8628305493      -18.2750621052       -1.1637389399  MEMB      24              0.0000000000
      3255        30  POPC      H18R          -11.0681037797      -17.1869544392       -1.2543255609  MEMB      24              0.0000000000
      3256        30  POPC      H18S          -11.8411360413      -18.7330497364       -0.9039555381  MEMB      24              0.0000000000
      3257        30  POPC      H18T          -10.3018150870      -18.5607153921       -2.0791531002  MEMB      24              0.0000000000
      3258        30  POPC      C33           -13.0682265161      -22.8423103519       12.3842556730  MEMB      24              0.0000000000
      3259        30  POPC      H3X           -13.5597731055      -23.6269599410       11.7702297225  MEMB      24              0.0000000000
      3260        30  POPC      H3Y           -11.9611719805      -22.8817778730       12.2994408265  MEMB      24              0.0000000000
      3261        30  POPC      C34           -13.7273675192      -21.4939576113       11.8844414400  MEMB      24              0.0000000000
      3262        30  POPC      H4X           -13.1708709065      -20.7334598145       12.4728933797  MEMB      24              0.0000000000
      3263        30  POPC      H4Y           -14.8060460682      -21.5089548855       12.1500511624  MEMB      24              0.0000000000
      3264        30  POPC      C35           -13.5063595253      -21.1433073243       10.3807116176  MEMB      24              0.0000000000
      3265        30  POPC      H5X           -12.4440940358      -21.2126130482       10.0627336661  MEMB      24              0.0000000000
      3266        30  POPC      H5Y           -13.9251381648      -20.1224073151       10.2514494087  MEMB      24              0.0000000000
      3267        30  POPC      C36           -14.3174870306      -22.0623074413        9.4217318569  MEMB      24              0.0000000000
      3268        30  POPC      H6X           -15.3858876694      -21.8312740551        9.6203903133  MEMB      24              0.0000000000
      3269        30  POPC      H6Y           -14.1554351241      -23.1481816645        9.5918417859  MEMB      24              0.0000000000
      3270        30  POPC      C37           -14.1085323791      -21.7075661809        7.8987250646  MEMB      24              0.0000000000
      3271        30  POPC      H7X           -14.2607516131      -20.6133059890        7.7814860065  MEMB      24              0.0000000000
      3272        30  POPC      H7Y           -14.8912165852      -22.3027524747        7.3815403024  MEMB      24              0.0000000000
      3273        30  POPC      C38           -12.6965706596      -22.0147744255        7.2610842390  MEMB      24              0.0000000000
      3274        30  POPC      H8X           -12.4437914855      -23.0765198315        7.4687390668  MEMB      24              0.0000000000
      3275        30  POPC      H8Y           -11.9494804489      -21.3642802247        7.7641090857  MEMB      24              0.0000000000
      3276        30  POPC      C39           -12.6495812729      -21.7747993963        5.7363947819  MEMB      24              0.0000000000
      3277        30  POPC      H9X           -12.8046895455      -20.6862401083        5.5773317669  MEMB      24              0.0000000000
      3278        30  POPC      H9Y           -13.5394753128      -22.2940816760        5.3207563009  MEMB      24              0.0000000000
      3279        30  POPC      C310          -11.3632457927      -22.0705155006        4.9268323746  MEMB      24              0.0000000000
      3280        30  POPC      H10X          -11.1045778816      -23.0400939183        5.4036234589  MEMB      24              0.0000000000
      3281        30  POPC      H10Y          -10.5417759227      -21.3922637643        5.2422418232  MEMB      24              0.0000000000
      3282        30  POPC      C311          -11.3981172182      -22.1838588900        3.4486957344  MEMB      24              0.0000000000
      3283        30  POPC      H11X          -11.3509498884      -21.2537725822        2.8428608641  MEMB      24              0.0000000000
      3284        30  POPC      H11Y          -12.3059384186      -22.7873106380        3.2341547047  MEMB      24              0.0000000000
      3285        30  POPC      C312          -10.1853868644      -22.9257201781        2.7725480447  MEMB      24              0.0000000000
      3286        30  POPC      H12X          -10.3821762285      -23.0455798313        1.6857043781  MEMB      24              0.0000000000
      3287        30  POPC      H12Y          -10.1842147490      -23.8894573390        3.3252959749  MEMB      24              0.0000000000
      3288        30  POPC      C313           -8.9070447265      -22.1850371061        2.8623334825  MEMB      24              0.0000000000
      3289        30  POPC      H13X           -8.6167494150      -21.9371393313        3.9056921825  MEMB      24              0.0000000000
      3290        30  POPC      H13Y           -8.8746116404      -21.1994685481        2.3505486169  MEMB      24              0.0000000000
      3291        30  POPC      C314           -7.7496784674      -23.0548136251        2.3269719157  MEMB      24              0.0000000000
      3292        30  POPC      H14X           -7.5276978902      -23.9470931383        2.9505759647  MEMB      24              0.0000000000
      3293        30  POPC      H14Y           -6.8732251354      -22.3775377852        2.4132728181  MEMB      24              0.0000000000
      3294        30  POPC      C315           -7.8069918558      -23.4409501523        0.8379789707  MEMB      24              0.0000000000
      3295        30  POPC      H15X           -8.3481229051      -24.3721498967        0.5652774059  MEMB      24              0.0000000000
      3296        30  POPC      H15Y           -6.7735698167      -23.6238536870        0.4734146780  MEMB      24              0.0000000000
      3297        30  POPC      C316           -8.1958436661      -22.2560124024       -0.1136068627  MEMB      24              0.0000000000
      3298        30  POPC      H16X           -9.2823554433      -22.0240393272       -0.1150764336  MEMB      24              0.0000000000
      3299        30  POPC      H16Y           -8.0293570747      -22.6427007665       -1.1417478255  MEMB      24              0.0000000000
      3300        30  POPC      H16Z           -7.5436275869      -21.3769878007        0.0767912301  MEMB      24              0.0000000000
      3301        31  POPS      N               9.5320820305      -18.6551966384       18.9963136243  MEMB      25              0.0000000000
      3302        31  POPS      HN1             9.3399387610      -18.4884408449       17.9879122106  MEMB      25              0.0000000000
      3303        31  POPS      HN2             9.5932664926      -19.6742662350       19.1946912486  MEMB      25              0.0000000000
      3304        31  POPS      HN3             8.7590557152      -18.2570975628       19.5668809708  MEMB      25              0.0000000000
      3305        31  POPS      C12            10.7623564079      -18.0658336600       19.5722111018  MEMB      25              0.0000000000
      3306        31  POPS      H12A           10.6703844250      -18.3107650740       20.6200421150  MEMB      25              0.0000000000
      3307        31  POPS      C13            10.5005993331      -16.5844759078       19.5235688254  MEMB      25              0.0000000000
      3308        31  POPS      O13A            9.3594079102      -16.0729821087       19.5499809372  MEMB      25              0.0000000000
      3309        31  POPS      O13B           11.5526669433      -15.8717007998       19.3918424574  MEMB      25              0.0000000000
      3310        31  POPS      C11            12.0415930420      -18.6446909030       18.8888898249  MEMB      25              0.0000000000
      3311        31  POPS      H11A           12.8789612443      -18.1157711401       19.3922579822  MEMB      25              0.0000000000
      3312        31  POPS      H11B           11.9067358410      -18.3565740475       17.8244072480  MEMB      25              0.0000000000
      3313        31  POPS      P              13.1080344812      -21.0182200299       18.6302066782  MEMB      25              0.0000000000
      3314        31  POPS      O13            12.4501933692      -22.3439229183       18.5241982884  MEMB      25              0.0000000000
      3315        31  POPS      O14            14.2114103725      -21.0235984636       19.6605674891  MEMB      25              0.0000000000
      3316        31  POPS      O12            11.9992878392      -20.0239746392       19.0309627862  MEMB      25              0.0000000000
      3317        31  POPS      O11            13.6004683425      -20.3853413860       17.2312579851  MEMB      25              0.0000000000
      3318        31  POPS      C1             12.7792917010      -20.2788408176       16.1577732237  MEMB      25              0.0000000000
      3319        31  POPS      HA             13.1143170050      -19.3532556549       15.6426313245  MEMB      25              0.0000000000
      3320        31  POPS      HB             11.6995220157      -20.2046376336       16.4085962943  MEMB      25              0.0000000000
      3321        31  POPS      C2             12.7727492367      -21.4715647204       15.1371969429  MEMB      25              0.0000000000
      3322        31  POPS      HS             12.7936216886      -22.4040410272       15.7408303144  MEMB      25              0.0000000000
      3323        31  POPS      O21            13.9526029619      -21.3267012311       14.3828064847  MEMB      25              0.0000000000
      3324        31  POPS      C21            14.4409285150      -22.2738188489       13.6208494020  MEMB      25              0.0000000000
      3325        31  POPS      O22            14.0630378936      -23.4151922441       13.6840270466  MEMB      25              0.0000000000
      3326        31  POPS      C22            15.6466257103      -21.7308949799       12.8632222705  MEMB      25              0.0000000000
      3327        31  POPS      H2R            16.5333256050      -22.1116479228       13.4137778024  MEMB      25              0.0000000000
      3328        31  POPS      H2S            15.6397852954      -20.6289566239       12.7217790665  MEMB      25              0.0000000000
      3329        31  POPS      C3             11.5828644805      -21.4804041974       14.1194899034  MEMB      25              0.0000000000
      3330        31  POPS      HX             10.6866992369      -21.8189673000       14.6821477261  MEMB      25              0.0000000000
      3331        31  POPS      HY             11.7790196144      -22.1835330296       13.2819611396  MEMB      25              0.0000000000
      3332        31  POPS      O31            11.3892828507      -20.2219725362       13.5205176976  MEMB      25              0.0000000000
      3333        31  POPS      C31            10.2750446325      -19.5474817980       13.5559232266  MEMB      25              0.0000000000
      3334        31  POPS      O32             9.3527251416      -19.8933919007       14.2813073586  MEMB      25              0.0000000000
      3335        31  POPS      C32            10.2156612164      -18.4296486278       12.4920694762  MEMB      25              0.0000000000
      3336        31  POPS      H2X            10.4819872112      -17.5368453125       13.0972916148  MEMB      25              0.0000000000
      3337        31  POPS      H2Y             9.2498401565      -18.2815457967       11.9633200993  MEMB      25              0.0000000000
      3338        31  POPS      C23            15.6960599847      -22.3767839503       11.4669573890  MEMB      25              0.0000000000
      3339        31  POPS      H3R            15.6300781467      -23.4857359646       11.4808429832  MEMB      25              0.0000000000
      3340        31  POPS      H3S            16.6746082375      -22.0650214322       11.0432023774  MEMB      25              0.0000000000
      3341        31  POPS      C24            14.6196958874      -21.7758613584       10.4364168859  MEMB      25              0.0000000000
      3342        31  POPS      H4R            14.9301241281      -20.7147512737       10.3268680322  MEMB      25              0.0000000000
      3343        31  POPS      H4S            13.6496237374      -21.8456929503       10.9734494901  MEMB      25              0.0000000000
      3344        31  POPS      C25            14.6063257295      -22.5801937968        9.1294550384  MEMB      25              0.0000000000
      3345        31  POPS      H5R            14.0423121221      -23.5251752878        9.2818377439  MEMB      25              0.0000000000
      3346        31  POPS      H5S            15.6217033739      -22.9136560677        8.8259225819  MEMB      25              0.0000000000
      3347        31  POPS      C26            13.9187091241      -21.8624455583        8.0379995503  MEMB      25              0.0000000000
      3348        31  POPS      H6R            14.6232480756      -21.2062244369        7.4836348665  MEMB      25              0.0000000000
      3349        31  POPS      H6S            13.0437510649      -21.2889077577        8.4119299522  MEMB      25              0.0000000000
      3350        31  POPS      C27            13.3220551999      -22.8788274191        7.0022068322  MEMB      25              0.0000000000
      3351        31  POPS      H7R            12.6708391589      -23.6229595908        7.5086708959  MEMB      25              0.0000000000
      3352        31  POPS      H7S            14.1322366346      -23.4607786016        6.5130645780  MEMB      25              0.0000000000
      3353        31  POPS      C28            12.4445994828      -22.1461375321        5.8938176570  MEMB      25              0.0000000000
      3354        31  POPS      H8R            11.6177297342      -21.6261215035        6.4231471263  MEMB      25              0.0000000000
      3355        31  POPS      H8S            11.9759729637      -22.8938839506        5.2188463675  MEMB      25              0.0000000000
      3356        31  POPS      C29            13.2372151512      -21.0764834902        5.0382034015  MEMB      25              0.0000000000
      3357        31  POPS      H91            14.3044721974      -20.8691441076        5.2054542978  MEMB      25              0.0000000000
      3358        31  POPS      C210           12.5854742645      -20.3162292512        4.2295578980  MEMB      25              0.0000000000
      3359        31  POPS      H101           13.1811045487      -19.5364182208        3.7324471823  MEMB      25              0.0000000000
      3360        31  POPS      C211           11.1279489330      -20.2249478012        3.9438358550  MEMB      25              0.0000000000
      3361        31  POPS      H11R           10.5655702911      -20.5978447865        4.8264452801  MEMB      25              0.0000000000
      3362        31  POPS      H11S           10.9690757207      -20.7599644647        2.9831918256  MEMB      25              0.0000000000
      3363        31  POPS      C212           10.7376750231      -18.8176688193        3.7048049417  MEMB      25              0.0000000000
      3364        31  POPS      H12R           11.1873336015      -18.4404595343        2.7614919385  MEMB      25              0.0000000000
      3365        31  POPS      H12S           11.0670702588      -18.2494166863        4.6008576938  MEMB      25              0.0000000000
      3366        31  POPS      C213            9.1648371564      -18.5594929614        3.6566529946  MEMB      25              0.0000000000
      3367        31  POPS      H13R            9.0274641006      -17.5777733814        4.1583266114  MEMB      25              0.0000000000
      3368        31  POPS      H13S            8.5226560858      -19.3307582389        4.1331766212  MEMB      25              0.0000000000
      3369        31  POPS      C214            8.6283415403      -18.3568226094        2.2354769061  MEMB      25              0.0000000000
      3370        31  POPS      H14R            9.1103097293      -17.4205120176        1.8814304158  MEMB      25              0.0000000000
      3371        31  POPS      H14S            7.5304766882      -18.1889869085        2.2645461008  MEMB      25              0.0000000000
      3372        31  POPS      C215            8.7006162582      -19.5682830572        1.3077023511  MEMB      25              0.0000000000
      3373        31  POPS      H15R            8.4025310842      -20.4420384047        1.9257778953  MEMB      25              0.0000000000
      3374        31  POPS      H15S            9.7545478484      -19.7702561064        1.0200296970  MEMB      25              0.0000000000
      3375        31  POPS      C216            7.7588353898      -19.3783535959        0.0477563972  MEMB      25              0.0000000000
      3376        31  POPS      H16R            8.1493598779      -18.6724180307       -0.7160933286  MEMB      25              0.0000000000
      3377        31  POPS      H16S            6.8283753771      -18.8649323178        0.3717361856  MEMB      25              0.0000000000
      3378        31  POPS      C217            7.3844364855      -20.7326675626       -0.5851249656  MEMB      25              0.0000000000
      3379        31  POPS      H17R            6.6506173274      -20.7304220721       -1.4192864437  MEMB      25              0.0000000000
      3380        31  POPS      H17S            6.8508263161      -21.2503244268        0.2404730238  MEMB      25              0.0000000000
      3381        31  POPS      C218            8.4734205769      -21.6972543463       -0.9818584003  MEMB      25              0.0000000000
      3382        31  POPS      H18R            8.0200703650      -22.6316989124       -1.3763299324  MEMB      25              0.0000000000
      3383        31  POPS      H18S            9.1555196081      -21.8381306965       -0.1162866216  MEMB      25              0.0000000000
      3384        31  POPS      H18T            9.0359635366      -21.2964128257       -1.8520271960  MEMB      25              0.0000000000
      3385        31  POPS      C33            11.3313754962      -18.5319889577       11.4368604878  MEMB      25              0.0000000000
      3386        31  POPS      H3X            11.3230672116      -19.5959380939       11.1170731896  MEMB      25              0.0000000000
      3387        31  POPS      H3Y            12.3794619920      -18.4260266188       11.7898588447  MEMB      25              0.0000000000
      3388        31  POPS      C34            11.0561879937      -17.7420619616       10.1288512216  MEMB      25              0.0000000000
      3389        31  POPS      H4X            10.9979626270      -16.6469727299       10.3069258080  MEMB      25              0.0000000000
      3390        31  POPS      H4Y            10.0698434267      -18.0060377459        9.6909447819  MEMB      25              0.0000000000
      3391        31  POPS      C35            11.9542546885      -18.1457629028        8.9491970517  MEMB      25              0.0000000000
      3392        31  POPS      H5X            11.5602729720      -17.5455668317        8.1013391822  MEMB      25              0.0000000000
      3393        31  POPS      H5Y            11.9813220131      -19.2209959195        8.6708766599  MEMB      25              0.0000000000
      3394        31  POPS      C36            13.5236184854      -17.7916590873        8.9332145692  MEMB      25              0.0000000000
      3395        31  POPS      H6X            14.0035105661      -18.2353611439        9.8316322776  MEMB      25              0.0000000000
      3396        31  POPS      H6Y            13.6623827766      -16.7049980570        9.1182378579  MEMB      25              0.0000000000
      3397        31  POPS      C37            14.4607519457      -18.1263070154        7.7743811220  MEMB      25              0.0000000000
      3398        31  POPS      H7X            14.5958836655      -19.2261337762        7.6941227192  MEMB      25              0.0000000000
      3399        31  POPS      H7Y            15.4895328505      -17.8399327354        8.0808466072  MEMB      25              0.0000000000
      3400        31  POPS      C38            13.9761835798      -17.6404036659        6.3669636989  MEMB      25              0.0000000000
      3401        31  POPS      H8X            13.5829282200      -16.6407293524        6.6503763479  MEMB      25              0.0000000000
      3402        31  POPS      H8Y            13.3033218025      -18.4306736861        5.9706670137  MEMB      25              0.0000000000
      3403        31  POPS      C39            15.1611504238      -17.5322425549        5.3678268338  MEMB      25              0.0000000000
      3404        31  POPS      H9X            15.5409574323      -18.5397208544        5.0938646295  MEMB      25              0.0000000000
      3405        31  POPS      H9Y            16.0640764745      -17.0523029031        5.8022262567  MEMB      25              0.0000000000
      3406        31  POPS      C310           14.7174583790      -16.8546093182        4.1249297437  MEMB      25              0.0000000000
      3407        31  POPS      H10X           14.2216251655      -15.8741768325        4.2899221842  MEMB      25              0.0000000000
      3408        31  POPS      H10Y           14.0656997642      -17.5729403444        3.5831436298  MEMB      25              0.0000000000
      3409        31  POPS      C311           15.9303594292      -16.5343337572        3.1879092479  MEMB      25              0.0000000000
      3410        31  POPS      H11X           16.3402605441      -17.4755310090        2.7631152925  MEMB      25              0.0000000000
      3411        31  POPS      H11Y           16.7344958994      -16.0176926542        3.7542721558  MEMB      25              0.0000000000
      3412        31  POPS      C312           15.4626661279      -15.7593859338        1.8837503729  MEMB      25              0.0000000000
      3413        31  POPS      H12X           16.3417733645      -15.5730390733        1.2304773462  MEMB      25              0.0000000000
      3414        31  POPS      H12Y           15.1247781717      -14.7998413726        2.3303240011  MEMB      25              0.0000000000
      3415        31  POPS      C313           14.3847519455      -16.3833769432        1.0134825661  MEMB      25              0.0000000000
      3416        31  POPS      H13X           14.1305045837      -15.5467526888        0.3281079814  MEMB      25              0.0000000000
      3417        31  POPS      H13Y           13.4686567093      -16.6960598640        1.5587521752  MEMB      25              0.0000000000
      3418        31  POPS      C314           14.7668882496      -17.7276397402        0.2480232192  MEMB      25              0.0000000000
      3419        31  POPS      H14X           14.9357656778      -18.5958258589        0.9203726840  MEMB      25              0.0000000000
      3420        31  POPS      H14Y           15.7134967793      -17.4763932445       -0.2765036889  MEMB      25              0.0000000000
      3421        31  POPS      C315           13.7563892457      -17.9602583450       -0.9532804482  MEMB      25              0.0000000000
      3422        31  POPS      H15X           13.8896754047      -17.0617228964       -1.5929607750  MEMB      25              0.0000000000
      3423        31  POPS      H15Y           12.7094869943      -17.8383648137       -0.6019150458  MEMB      25              0.0000000000
      3424        31  POPS      C316           13.8941782465      -19.3012633915       -1.5356080355  MEMB      25              0.0000000000
      3425        31  POPS      H16X           14.7575472076      -19.5824679822       -2.1757954770  MEMB      25              0.0000000000
      3426        31  POPS      H16Y           12.9610584341      -19.6710307746       -2.0119289164  MEMB      25              0.0000000000
      3427        31  POPS      H16Z           13.9750692305      -20.0055236316       -0.6801590362  MEMB      25              0.0000000000
      3428        32  POPC      N             -24.1817880516        2.5881176959       19.7423257235  MEMB      26              0.0000000000
      3429        32  POPC      C12           -23.7363750335        2.3788177726       18.3206385371  MEMB      26              0.0000000000
      3430        32  POPC      H12A          -23.0328181606        3.1547268166       18.0572511425  MEMB      26              0.0000000000
      3431        32  POPC      H12B          -24.5469526458        2.5616401027       17.6307546397  MEMB      26              0.0000000000
      3432        32  POPC      C13           -23.0646320576        2.4610455149       20.7021940714  MEMB      26              0.0000000000
      3433        32  POPC      H13A          -23.5004134575        2.4658307295       21.6903597468  MEMB      26              0.0000000000
      3434        32  POPC      H13B          -22.4844918193        1.5660720059       20.5323127578  MEMB      26              0.0000000000
      3435        32  POPC      H13C          -22.4535412707        3.3330856231       20.5218773692  MEMB      26              0.0000000000
      3436        32  POPC      C14           -24.7114762132        3.9837392306       19.9749044475  MEMB      26              0.0000000000
      3437        32  POPC      H14A          -25.6692274582        4.1613436989       19.5084613547  MEMB      26              0.0000000000
      3438        32  POPC      H14B          -24.8007684927        4.1730405525       21.0344289030  MEMB      26              0.0000000000
      3439        32  POPC      H14C          -24.1029052406        4.7748183265       19.5623086698  MEMB      26              0.0000000000
      3440        32  POPC      C15           -25.2871718845        1.5970950804       20.0768775421  MEMB      26              0.0000000000
      3441        32  POPC      H15A          -24.8732402619        0.7483647404       20.6010124448  MEMB      26              0.0000000000
      3442        32  POPC      H15B          -25.7473308401        1.3370177251       19.1350634825  MEMB      26              0.0000000000
      3443        32  POPC      H15C          -26.0404006966        2.0927701079       20.6713121981  MEMB      26              0.0000000000
      3444        32  POPC      C11           -23.1714353551        0.9948160132       17.9450414706  MEMB      26              0.0000000000
      3445        32  POPC      H11A          -23.0782899841        0.8826456668       16.8436500962  MEMB      26              0.0000000000
      3446        32  POPC      H11B          -24.0014508722        0.2656388363       18.0620715729  MEMB      26              0.0000000000
      3447        32  POPC      P             -20.6112052064        1.0396667432       18.3993912062  MEMB      26              0.0000000000
      3448        32  POPC      O13           -20.3414176306        0.7572353057       16.9667164284  MEMB      26              0.0000000000
      3449        32  POPC      O14           -19.7307951346        0.4143981327       19.4637286763  MEMB      26              0.0000000000
      3450        32  POPC      O12           -22.0329473216        0.5056832178       18.7270268040  MEMB      26              0.0000000000
      3451        32  POPC      O11           -20.6390215231        2.6658608317       18.6811550402  MEMB      26              0.0000000000
      3452        32  POPC      C1            -19.8294461465        3.6477015461       18.0341606237  MEMB      26              0.0000000000
      3453        32  POPC      HA            -19.0576450779        3.1703856645       17.3932132157  MEMB      26              0.0000000000
      3454        32  POPC      HB            -19.3947408274        4.2041902115       18.8918741014  MEMB      26              0.0000000000
      3455        32  POPC      C2            -20.7469796627        4.6819416085       17.2422192044  MEMB      26              0.0000000000
      3456        32  POPC      HS            -21.3702815112        5.2606371587       17.9570110533  MEMB      26              0.0000000000
      3457        32  POPC      O21           -21.5795051179        3.8640213465       16.4508506081  MEMB      26              0.0000000000
      3458        32  POPC      C21           -22.6924724591        4.4013614757       15.8712509991  MEMB      26              0.0000000000
      3459        32  POPC      O22           -23.1592409174        5.4935959122       16.2269308655  MEMB      26              0.0000000000
      3460        32  POPC      C22           -23.4063871703        3.3745945738       15.0884832945  MEMB      26              0.0000000000
      3461        32  POPC      H2R           -24.3287424749        2.9313470772       15.5210496224  MEMB      26              0.0000000000
      3462        32  POPC      H2S           -22.7630579583        2.4695071249       15.0529175120  MEMB      26              0.0000000000
      3463        32  POPC      C3            -19.7904717228        5.5721968566       16.4064568520  MEMB      26              0.0000000000
      3464        32  POPC      HX            -19.0557156742        5.9949113335       17.1246258091  MEMB      26              0.0000000000
      3465        32  POPC      HY            -20.4386083204        6.3741738713       15.9928475602  MEMB      26              0.0000000000
      3466        32  POPC      O31           -19.0581857372        4.8587780453       15.3665829966  MEMB      26              0.0000000000
      3467        32  POPC      C31           -18.8185706051        5.4155844445       14.2348351804  MEMB      26              0.0000000000
      3468        32  POPC      O32           -19.2997289923        6.4210740879       13.7663241159  MEMB      26              0.0000000000
      3469        32  POPC      C32           -17.8618991675        4.4594057758       13.4771692093  MEMB      26              0.0000000000
      3470        32  POPC      H2X           -17.0570688983        4.0196985899       14.1042472101  MEMB      26              0.0000000000
      3471        32  POPC      H2Y           -17.2133106308        5.0569379652       12.8014406465  MEMB      26              0.0000000000
      3472        32  POPC      C23           -23.7759270292        3.9751432166       13.6675182818  MEMB      26              0.0000000000
      3473        32  POPC      H3R           -24.3210875052        4.9243572918       13.8575543650  MEMB      26              0.0000000000
      3474        32  POPC      H3S           -24.3225320073        3.2272896547       13.0541186703  MEMB      26              0.0000000000
      3475        32  POPC      C24           -22.4512207472        4.2566229090       12.8552507429  MEMB      26              0.0000000000
      3476        32  POPC      H4R           -22.1585784730        3.3305872498       12.3156771412  MEMB      26              0.0000000000
      3477        32  POPC      H4S           -21.6272744050        4.6841123215       13.4657308757  MEMB      26              0.0000000000
      3478        32  POPC      C25           -22.7223051577        5.3437653196       11.7773099564  MEMB      26              0.0000000000
      3479        32  POPC      H5R           -22.9918902778        6.3038745381       12.2670398752  MEMB      26              0.0000000000
      3480        32  POPC      H5S           -23.6233729664        5.0952773116       11.1767673699  MEMB      26              0.0000000000
      3481        32  POPC      C26           -21.4555402417        5.7432222737       10.9706851020  MEMB      26              0.0000000000
      3482        32  POPC      H6R           -20.7445182426        5.9633846029       11.7954864453  MEMB      26              0.0000000000
      3483        32  POPC      H6S           -21.6604869114        6.7450933929       10.5364370524  MEMB      26              0.0000000000
      3484        32  POPC      C27           -21.0943089377        4.6795282071        9.8926032930  MEMB      26              0.0000000000
      3485        32  POPC      H7R           -21.1640608774        3.6940507588       10.4008247100  MEMB      26              0.0000000000
      3486        32  POPC      H7S           -20.0646089617        4.8418703589        9.5083057934  MEMB      26              0.0000000000
      3487        32  POPC      C28           -21.9304556710        4.6718567014        8.7187326800  MEMB      26              0.0000000000
      3488        32  POPC      H8R           -23.0078537288        4.5156232330        8.9403766308  MEMB      26              0.0000000000
      3489        32  POPC      H8S           -21.7074168586        3.8498808462        8.0053395351  MEMB      26              0.0000000000
      3490        32  POPC      C29           -21.5823395577        5.9834931433        7.9886013636  MEMB      26              0.0000000000
      3491        32  POPC      H91           -22.1926173209        6.8624066490        8.2436939098  MEMB      26              0.0000000000
      3492        32  POPC      C210          -20.6759290946        6.1592527265        6.9831920319  MEMB      26              0.0000000000
      3493        32  POPC      H101          -20.5551424772        7.1766336045        6.5827588489  MEMB      26              0.0000000000
      3494        32  POPC      C211          -19.7641348301        5.1019725762        6.3250555320  MEMB      26              0.0000000000
      3495        32  POPC      H11R          -20.3504776190        4.7976960697        5.4317815347  MEMB      26              0.0000000000
      3496        32  POPC      H11S          -19.6572784106        4.2039138022        6.9703407758  MEMB      26              0.0000000000
      3497        32  POPC      C212          -18.3458428171        5.7075519535        5.9678010830  MEMB      26              0.0000000000
      3498        32  POPC      H12R          -17.9383073145        5.9658778641        6.9685531071  MEMB      26              0.0000000000
      3499        32  POPC      H12S          -18.3872945065        6.5889003690        5.2926511297  MEMB      26              0.0000000000
      3500        32  POPC      C213          -17.4444595718        4.6643929526        5.4656759110  MEMB      26              0.0000000000
      3501        32  POPC      H13R          -17.9214214799        3.7100034614        5.7754649623  MEMB      26              0.0000000000
      3502        32  POPC      H13S          -16.4064252965        4.7382731374        5.8547108082  MEMB      26              0.0000000000
      3503        32  POPC      C214          -17.4835321016        4.3960057661        3.9385323079  MEMB      26              0.0000000000
      3504        32  POPC      H14R          -16.8385677132        3.5257403750        3.6915914878  MEMB      26              0.0000000000
      3505        32  POPC      H14S          -16.9174491793        5.2366656601        3.4833803343  MEMB      26              0.0000000000
      3506        32  POPC      C215          -18.7822048075        4.2924378717        3.1598900297  MEMB      26              0.0000000000
      3507        32  POPC      H15R          -19.4154634724        5.1871563714        3.3409522223  MEMB      26              0.0000000000
      3508        32  POPC      H15S          -19.2467756267        3.3648920082        3.5575760704  MEMB      26              0.0000000000
      3509        32  POPC      C216          -18.5113351410        4.0691158360        1.6350174857  MEMB      26              0.0000000000
      3510        32  POPC      H16R          -18.6160419838        2.9908281754        1.3887388651  MEMB      26              0.0000000000
      3511        32  POPC      H16S          -17.4437062740        4.2505583106        1.3868900817  MEMB      26              0.0000000000
      3512        32  POPC      C217          -19.2992707781        4.9744808083        0.6907773891  MEMB      26              0.0000000000
      3513        32  POPC      H17R          -18.9914445725        4.8035151232       -0.3629465607  MEMB      26              0.0000000000
      3514        32  POPC      H17S          -19.1051973681        6.0488771887        0.8965175438  MEMB      26              0.0000000000
      3515        32  POPC      C218          -20.8509340798        4.8624093339        0.7234309184  MEMB      26              0.0000000000
      3516        32  POPC      H18R          -21.2593279029        5.0626281727       -0.2902002843  MEMB      26              0.0000000000
      3517        32  POPC      H18S          -21.4196782935        5.3221909973        1.5597637749  MEMB      26              0.0000000000
      3518        32  POPC      H18T          -21.0505366427        3.7857727414        0.9114039923  MEMB      26              0.0000000000
      3519        32  POPC      C33           -18.5550569082        3.3491863962       12.6682919331  MEMB      26              0.0000000000
      3520        32  POPC      H3X           -17.8020547110        3.2186626980       11.8618971494  MEMB      26              0.0000000000
      3521        32  POPC      H3Y           -19.5072297689        3.6637650396       12.1900368441  MEMB      26              0.0000000000
      3522        32  POPC      C34           -18.7693134919        2.0164200498       13.3536499026  MEMB      26              0.0000000000
      3523        32  POPC      H4X           -19.3877417714        2.2214213938       14.2535621540  MEMB      26              0.0000000000
      3524        32  POPC      H4Y           -17.8401892513        1.4282806579       13.5122100300  MEMB      26              0.0000000000
      3525        32  POPC      C35           -19.6937942513        1.0531743563       12.5252113685  MEMB      26              0.0000000000
      3526        32  POPC      H5X           -20.6885992514        1.5477955598       12.5193910803  MEMB      26              0.0000000000
      3527        32  POPC      H5Y           -19.8651099259        0.0054391959       12.8526605785  MEMB      26              0.0000000000
      3528        32  POPC      C36           -19.3279617342        1.0269609244       11.0566738929  MEMB      26              0.0000000000
      3529        32  POPC      H6X           -18.2475682851        0.7711631902       11.0971526912  MEMB      26              0.0000000000
      3530        32  POPC      H6Y           -19.5768307358        2.0471835256       10.6940010407  MEMB      26              0.0000000000
      3531        32  POPC      C37           -20.1568050928        0.1338180311       10.1805373357  MEMB      26              0.0000000000
      3532        32  POPC      H7X           -19.8403346261       -0.8883247514       10.4795217751  MEMB      26              0.0000000000
      3533        32  POPC      H7Y           -19.8966603117        0.2955942440        9.1126074322  MEMB      26              0.0000000000
      3534        32  POPC      C38           -21.6702201499        0.2749840939       10.5188671939  MEMB      26              0.0000000000
      3535        32  POPC      H8X           -21.8782085699        1.3269857247       10.2284279859  MEMB      26              0.0000000000
      3536        32  POPC      H8Y           -21.7778665947       -0.0438135542       11.5776876171  MEMB      26              0.0000000000
      3537        32  POPC      C39           -22.6175494755       -0.7231862783        9.7376527827  MEMB      26              0.0000000000
      3538        32  POPC      H9X           -23.6432219326       -0.5123329454       10.1089450325  MEMB      26              0.0000000000
      3539        32  POPC      H9Y           -22.3640118573       -1.7952476941        9.8816104742  MEMB      26              0.0000000000
      3540        32  POPC      C310          -22.5285299383       -0.6182656019        8.2026951635  MEMB      26              0.0000000000
      3541        32  POPC      H10X          -23.1523445417       -1.4485648378        7.8080065471  MEMB      26              0.0000000000
      3542        32  POPC      H10Y          -21.4731201678       -0.6575068760        7.8578882656  MEMB      26              0.0000000000
      3543        32  POPC      C311          -23.2249019908        0.6548110757        7.5512042216  MEMB      26              0.0000000000
      3544        32  POPC      H11X          -22.5316431179        1.4941153167        7.7731982600  MEMB      26              0.0000000000
      3545        32  POPC      H11Y          -24.1792624531        0.8350650824        8.0906719458  MEMB      26              0.0000000000
      3546        32  POPC      C312          -23.4424734650        0.6744698884        6.0500218344  MEMB      26              0.0000000000
      3547        32  POPC      H12X          -23.9935490699        1.6166222998        5.8426925863  MEMB      26              0.0000000000
      3548        32  POPC      H12Y          -24.1386044392       -0.1407960693        5.7583648220  MEMB      26              0.0000000000
      3549        32  POPC      C313          -22.1141279760        0.6554778602        5.3724253204  MEMB      26              0.0000000000
      3550        32  POPC      H13X          -21.7584613813       -0.3967198885        5.3989279506  MEMB      26              0.0000000000
      3551        32  POPC      H13Y          -21.4057470919        1.2420793301        5.9956560241  MEMB      26              0.0000000000
      3552        32  POPC      C314          -22.2002494081        1.0214434315        3.8643348003  MEMB      26              0.0000000000
      3553        32  POPC      H14X          -21.2087824958        1.1675982419        3.3847999093  MEMB      26              0.0000000000
      3554        32  POPC      H14Y          -22.7479826496        1.9878917517        3.8473918877  MEMB      26              0.0000000000
      3555        32  POPC      C315          -23.0475280138       -0.0084234067        3.0369138054  MEMB      26              0.0000000000
      3556        32  POPC      H15X          -24.0758033342       -0.1086202880        3.4454860023  MEMB      26              0.0000000000
      3557        32  POPC      H15Y          -22.7013385471       -1.0612382692        3.1147247087  MEMB      26              0.0000000000
      3558        32  POPC      C316          -23.2486652357        0.4628844927        1.5348379856  MEMB      26              0.0000000000
      3559        32  POPC      H16X          -24.1197459219       -0.0653018013        1.0914877873  MEMB      26              0.0000000000
      3560        32  POPC      H16Y          -22.2560695069        0.2770914619        1.0716361903  MEMB      26              0.0000000000
      3561        32  POPC      H16Z          -23.4557845218        1.5531328309        1.5875781055  MEMB      26              0.0000000000
      3562        33  POPC      N              21.5747929342       -6.9129395962       17.7443590705  MEMB      27              0.0000000000
      3563        33  POPC      C12            22.9764327648       -6.2679178927       17.6760961643  MEMB      27              0.0000000000
      3564        33  POPC      H12A           22.9428747218       -5.3764082820       17.0674219238  MEMB      27              0.0000000000
      3565        33  POPC      H12B           23.6285464370       -6.8880379056       17.0789370651  MEMB      27              0.0000000000
      3566        33  POPC      C13            21.6443376251       -8.3849158973       18.2604775719  MEMB      27              0.0000000000
      3567        33  POPC      H13A           22.3691300533       -8.9398305646       17.6832899890  MEMB      27              0.0000000000
      3568        33  POPC      H13B           21.8170795741       -8.4253415879       19.3258066078  MEMB      27              0.0000000000
      3569        33  POPC      H13C           20.6466722328       -8.7897762101       18.1759074924  MEMB      27              0.0000000000
      3570        33  POPC      C14            20.7525408534       -6.1198882007       18.6299649640  MEMB      27              0.0000000000
      3571        33  POPC      H14A           19.6931493212       -6.2437710229       18.4604282023  MEMB      27              0.0000000000
      3572        33  POPC      H14B           20.9340485925       -6.3191532743       19.6757892474  MEMB      27              0.0000000000
      3573        33  POPC      H14C           21.0300619230       -5.1135853101       18.3529519639  MEMB      27              0.0000000000
      3574        33  POPC      C15            20.8990611772       -6.9921340806       16.4216387325  MEMB      27              0.0000000000
      3575        33  POPC      H15A           21.5930414819       -7.3249003682       15.6639725096  MEMB      27              0.0000000000
      3576        33  POPC      H15B           20.5366992799       -6.0257280902       16.1035927320  MEMB      27              0.0000000000
      3577        33  POPC      H15C           20.1477635996       -7.7580325027       16.5455405250  MEMB      27              0.0000000000
      3578        33  POPC      C11            23.5625004460       -5.7812329840       18.9967613220  MEMB      27              0.0000000000
      3579        33  POPC      H11A           22.9662645083       -5.0218500316       19.5464531356  MEMB      27              0.0000000000
      3580        33  POPC      H11B           24.4480542318       -5.1677534239       18.7251766325  MEMB      27              0.0000000000
      3581        33  POPC      P              25.2694502752       -7.3235493272       20.3137041074  MEMB      27              0.0000000000
      3582        33  POPC      O13            24.9727772067       -8.4464852794       21.2650264377  MEMB      27              0.0000000000
      3583        33  POPC      O14            26.1546158184       -6.2437261577       20.7411839381  MEMB      27              0.0000000000
      3584        33  POPC      O12            23.8600180171       -6.7618534471       20.0591062863  MEMB      27              0.0000000000
      3585        33  POPC      O11            25.6884762469       -7.8637149569       18.8916813835  MEMB      27              0.0000000000
      3586        33  POPC      C1             27.0262083835       -7.8854722038       18.3917957607  MEMB      27              0.0000000000
      3587        33  POPC      HA             27.5043982990       -8.8095443512       18.7813419334  MEMB      27              0.0000000000
      3588        33  POPC      HB             27.6335531004       -6.9938468642       18.6572347134  MEMB      27              0.0000000000
      3589        33  POPC      C2             26.9449388230       -8.1227899848       16.8813410495  MEMB      27              0.0000000000
      3590        33  POPC      HS             27.8975113162       -8.5242771859       16.4742360074  MEMB      27              0.0000000000
      3591        33  POPC      O21            26.4937062418       -6.9430882784       16.1384199972  MEMB      27              0.0000000000
      3592        33  POPC      C21            27.4631601203       -5.9908932748       16.0605542260  MEMB      27              0.0000000000
      3593        33  POPC      O22            28.6053857265       -6.1579459384       16.4156416340  MEMB      27              0.0000000000
      3594        33  POPC      C22            26.9468742294       -4.7365436346       15.2548619889  MEMB      27              0.0000000000
      3595        33  POPC      H2R            26.9829270433       -3.8352113896       15.9034153267  MEMB      27              0.0000000000
      3596        33  POPC      H2S            25.8781237699       -4.8899416526       14.9930179333  MEMB      27              0.0000000000
      3597        33  POPC      C3             25.9059323374       -9.2698459330       16.5709727062  MEMB      27              0.0000000000
      3598        33  POPC      HX             24.8582632559       -8.9997615039       16.8234894744  MEMB      27              0.0000000000
      3599        33  POPC      HY             26.1241877860      -10.1179523954       17.2546401186  MEMB      27              0.0000000000
      3600        33  POPC      O31            26.1964298857       -9.7355065801       15.2233982762  MEMB      27              0.0000000000
      3601        33  POPC      C31            25.4501405689       -9.2562504962       14.1767791004  MEMB      27              0.0000000000
      3602        33  POPC      O32            24.5276958508       -8.4308006107       14.2533079977  MEMB      27              0.0000000000
      3603        33  POPC      C32            25.9273003308       -9.9700727782       12.9349167357  MEMB      27              0.0000000000
      3604        33  POPC      H2X            25.1229706642      -10.5045711062       12.3856566885  MEMB      27              0.0000000000
      3605        33  POPC      H2Y            26.6556800448      -10.7505123998       13.2426475104  MEMB      27              0.0000000000
      3606        33  POPC      C23            27.9099749208       -4.3791758532       14.0732253640  MEMB      27              0.0000000000
      3607        33  POPC      H3R            28.9204531294       -4.4112361740       14.5339057015  MEMB      27              0.0000000000
      3608        33  POPC      H3S            27.6579166697       -3.3970076092       13.6192059462  MEMB      27              0.0000000000
      3609        33  POPC      C24            27.8244038352       -5.1887833963       12.7961575009  MEMB      27              0.0000000000
      3610        33  POPC      H4R            27.8679549007       -6.2685232411       13.0542007082  MEMB      27              0.0000000000
      3611        33  POPC      H4S            28.7528266035       -5.0504572816       12.2018360910  MEMB      27              0.0000000000
      3612        33  POPC      C25            26.7042570335       -4.7356549778       11.7740978384  MEMB      27              0.0000000000
      3613        33  POPC      H5R            26.9600672712       -5.2753991322       10.8373169244  MEMB      27              0.0000000000
      3614        33  POPC      H5S            26.7224586081       -3.6386225191       11.5994279293  MEMB      27              0.0000000000
      3615        33  POPC      C26            25.2730286436       -5.0667362496       12.1707085043  MEMB      27              0.0000000000
      3616        33  POPC      H6R            25.0060883936       -4.4046806192       13.0220290710  MEMB      27              0.0000000000
      3617        33  POPC      H6S            25.3519189472       -6.1513866759       12.3979325229  MEMB      27              0.0000000000
      3618        33  POPC      C27            24.3173575947       -4.7074506585       11.0817439844  MEMB      27              0.0000000000
      3619        33  POPC      H7R            24.6154968699       -5.3876922523       10.2554835803  MEMB      27              0.0000000000
      3620        33  POPC      H7S            24.6541698123       -3.6625913836       10.9110175756  MEMB      27              0.0000000000
      3621        33  POPC      C28            22.8126848540       -4.8768446738       11.3856219451  MEMB      27              0.0000000000
      3622        33  POPC      H8R            22.1952390736       -4.5219147059       10.5329159992  MEMB      27              0.0000000000
      3623        33  POPC      H8S            22.5819710423       -4.3203603344       12.3191189150  MEMB      27              0.0000000000
      3624        33  POPC      C29            22.6526724771       -6.3267528229       11.7406540360  MEMB      27              0.0000000000
      3625        33  POPC      H91            22.8319143930       -6.5976061425       12.7916113315  MEMB      27              0.0000000000
      3626        33  POPC      C210           22.4369937951       -7.3154882493       10.8592390399  MEMB      27              0.0000000000
      3627        33  POPC      H101           22.4107317017       -8.3553064916       11.2171329741  MEMB      27              0.0000000000
      3628        33  POPC      C211           22.3228282841       -7.2141693644        9.3508668728  MEMB      27              0.0000000000
      3629        33  POPC      H11R           22.4065670541       -6.1759802477        8.9642506238  MEMB      27              0.0000000000
      3630        33  POPC      H11S           21.4059836605       -7.6279710330        8.8791828795  MEMB      27              0.0000000000
      3631        33  POPC      C212           23.3984973255       -8.1309197349        8.7667261122  MEMB      27              0.0000000000
      3632        33  POPC      H12R           23.1920525835       -9.1221216339        9.2241321965  MEMB      27              0.0000000000
      3633        33  POPC      H12S           24.4423604353       -7.7613441513        8.8566409098  MEMB      27              0.0000000000
      3634        33  POPC      C213           23.2237880951       -8.3997655114        7.2643067602  MEMB      27              0.0000000000
      3635        33  POPC      H13R           22.2144149824       -8.7882023374        7.0101344705  MEMB      27              0.0000000000
      3636        33  POPC      H13S           24.0355699531       -9.0907961655        6.9515646697  MEMB      27              0.0000000000
      3637        33  POPC      C214           23.3964482047       -7.1238982777        6.3998527138  MEMB      27              0.0000000000
      3638        33  POPC      H14R           24.0956661553       -7.5267686938        5.6362355858  MEMB      27              0.0000000000
      3639        33  POPC      H14S           23.9830180520       -6.4224526599        7.0309073922  MEMB      27              0.0000000000
      3640        33  POPC      C215           22.2494026499       -6.3701654786        5.7459508194  MEMB      27              0.0000000000
      3641        33  POPC      H15R           22.6989947224       -5.4533154773        5.3082581232  MEMB      27              0.0000000000
      3642        33  POPC      H15S           21.4591515212       -6.1868824869        6.5050492351  MEMB      27              0.0000000000
      3643        33  POPC      C216           21.7818329984       -7.2204434954        4.5826850845  MEMB      27              0.0000000000
      3644        33  POPC      H16R           21.2041662768       -8.1002636851        4.9384069526  MEMB      27              0.0000000000
      3645        33  POPC      H16S           22.7611695930       -7.4551488677        4.1134998780  MEMB      27              0.0000000000
      3646        33  POPC      C217           21.0449742657       -6.4414371855        3.4898824740  MEMB      27              0.0000000000
      3647        33  POPC      H17R           21.4612526987       -5.4169151635        3.3831680385  MEMB      27              0.0000000000
      3648        33  POPC      H17S           19.9835093105       -6.3497568615        3.8048551683  MEMB      27              0.0000000000
      3649        33  POPC      C218           21.0321938791       -7.1962068867        2.1787865000  MEMB      27              0.0000000000
      3650        33  POPC      H18R           20.9946904872       -8.2718075559        2.4544617775  MEMB      27              0.0000000000
      3651        33  POPC      H18S           21.9121263460       -6.9176327435        1.5603720312  MEMB      27              0.0000000000
      3652        33  POPC      H18T           20.1740487412       -7.0374625546        1.4912488403  MEMB      27              0.0000000000
      3653        33  POPC      C33            26.5421749649       -8.8735156656       11.9667575852  MEMB      27              0.0000000000
      3654        33  POPC      H3X            27.5196404417       -8.5442139730       12.3796047706  MEMB      27              0.0000000000
      3655        33  POPC      H3Y            25.8569936216       -7.9992810920       11.9904482210  MEMB      27              0.0000000000
      3656        33  POPC      C34            26.6272611286       -9.4256884653       10.4733342671  MEMB      27              0.0000000000
      3657        33  POPC      H4X            25.5554089643       -9.4820536608       10.1864949356  MEMB      27              0.0000000000
      3658        33  POPC      H4Y            27.1363603319      -10.3959706306       10.2897826564  MEMB      27              0.0000000000
      3659        33  POPC      C35            27.4579913560       -8.4402460337        9.5619965605  MEMB      27              0.0000000000
      3660        33  POPC      H5X            28.3655600614       -8.0926666812       10.1003543110  MEMB      27              0.0000000000
      3661        33  POPC      H5Y            26.9337976895       -7.4659184221        9.4608662573  MEMB      27              0.0000000000
      3662        33  POPC      C36            27.6342912722       -8.8675011030        8.0723498286  MEMB      27              0.0000000000
      3663        33  POPC      H6X            26.7794508483       -9.3833506170        7.5850427823  MEMB      27              0.0000000000
      3664        33  POPC      H6Y            28.4398436053       -9.6305184016        8.1290120662  MEMB      27              0.0000000000
      3665        33  POPC      C37            28.2033905640       -7.7690488642        7.1722069531  MEMB      27              0.0000000000
      3666        33  POPC      H7X            28.9310803341       -8.2177320786        6.4626500230  MEMB      27              0.0000000000
      3667        33  POPC      H7Y            28.8283907490       -7.0928035651        7.7938079550  MEMB      27              0.0000000000
      3668        33  POPC      C38            27.0524547476       -7.0359523555        6.4126139908  MEMB      27              0.0000000000
      3669        33  POPC      H8X            26.1404474903       -6.8954284961        7.0313364559  MEMB      27              0.0000000000
      3670        33  POPC      H8Y            26.5803071889       -7.6527862156        5.6183134227  MEMB      27              0.0000000000
      3671        33  POPC      C39            27.4866820440       -5.7097786540        5.7645380293  MEMB      27              0.0000000000
      3672        33  POPC      H9X            28.5730460462       -5.8131947871        5.5561156474  MEMB      27              0.0000000000
      3673        33  POPC      H9Y            27.2968736817       -4.8270276009        6.4118747458  MEMB      27              0.0000000000
      3674        33  POPC      C310           26.6719425756       -5.4093635563        4.5239767213  MEMB      27              0.0000000000
      3675        33  POPC      H10X           25.6284811453       -5.1303117934        4.7840514971  MEMB      27              0.0000000000
      3676        33  POPC      H10Y           26.6310433534       -6.3493122926        3.9330914467  MEMB      27              0.0000000000
      3677        33  POPC      C311           27.2486180723       -4.3646861388        3.6127096255  MEMB      27              0.0000000000
      3678        33  POPC      H11X           28.2633186542       -4.7371765263        3.3558939740  MEMB      27              0.0000000000
      3679        33  POPC      H11Y           27.3286223494       -3.3761942308        4.1135135221  MEMB      27              0.0000000000
      3680        33  POPC      C312           26.4368975205       -4.0636124342        2.3595216908  MEMB      27              0.0000000000
      3681        33  POPC      H12X           27.1102187496       -3.5927945723        1.6116638931  MEMB      27              0.0000000000
      3682        33  POPC      H12Y           25.6859016931       -3.2944828435        2.6401743333  MEMB      27              0.0000000000
      3683        33  POPC      C313           25.7460414672       -5.1853482814        1.6200063152  MEMB      27              0.0000000000
      3684        33  POPC      H13X           25.2496891397       -4.6002013016        0.8165387419  MEMB      27              0.0000000000
      3685        33  POPC      H13Y           24.9391730526       -5.5041381774        2.3140209872  MEMB      27              0.0000000000
      3686        33  POPC      C314           26.5938765207       -6.3226199953        1.0156076240  MEMB      27              0.0000000000
      3687        33  POPC      H14X           27.3390351682       -6.7025526538        1.7468468625  MEMB      27              0.0000000000
      3688        33  POPC      H14Y           27.0320991466       -5.9288785430        0.0736694610  MEMB      27              0.0000000000
      3689        33  POPC      C315           25.8189570698       -7.4755429737        0.5460045461  MEMB      27              0.0000000000
      3690        33  POPC      H15X           25.0121628339       -7.1042150852       -0.1214672703  MEMB      27              0.0000000000
      3691        33  POPC      H15Y           25.4640501933       -7.9159376733        1.5022550018  MEMB      27              0.0000000000
      3692        33  POPC      C316           26.6580563634       -8.5737378798       -0.1728811923  MEMB      27              0.0000000000
      3693        33  POPC      H16X           26.0652846715       -9.5083428451       -0.2701210690  MEMB      27              0.0000000000
      3694        33  POPC      H16Y           27.4922681452       -8.7991868913        0.5253898821  MEMB      27              0.0000000000
      3695        33  POPC      H16Z           27.0616307511       -8.2534770972       -1.1572001542  MEMB      27              0.0000000000
      3696        34  POPC      N              10.3790151321       24.8521724797       18.2421653435  MEMB      28              0.0000000000
      3697        34  POPC      C12             9.2408777857       24.7115294314       19.2120396332  MEMB      28              0.0000000000
      3698        34  POPC      H12A            8.2954177498       24.7947762602       18.6966996986  MEMB      28              0.0000000000
      3699        34  POPC      H12B            9.3738977602       25.4950915010       19.9432961232  MEMB      28              0.0000000000
      3700        34  POPC      C13            10.1084210067       24.0430679519       17.0501073318  MEMB      28              0.0000000000
      3701        34  POPC      H13A            9.1376963095       24.0962687946       16.5797212697  MEMB      28              0.0000000000
      3702        34  POPC      H13B           10.7782559398       24.3242399831       16.2509431651  MEMB      28              0.0000000000
      3703        34  POPC      H13C           10.2599454633       22.9854942375       17.2081522906  MEMB      28              0.0000000000
      3704        34  POPC      C14            10.3772633088       26.3718843868       17.8343695753  MEMB      28              0.0000000000
      3705        34  POPC      H14A           10.7172189087       26.9539682079       18.6781755750  MEMB      28              0.0000000000
      3706        34  POPC      H14B           11.0588399443       26.5397720809       17.0135975607  MEMB      28              0.0000000000
      3707        34  POPC      H14C            9.4111036592       26.7666555217       17.5567159372  MEMB      28              0.0000000000
      3708        34  POPC      C15            11.6415228479       24.3805112433       18.9435510862  MEMB      28              0.0000000000
      3709        34  POPC      H15A           11.6002463574       23.3168096120       19.1258555070  MEMB      28              0.0000000000
      3710        34  POPC      H15B           11.7684674257       24.9013694796       19.8810967010  MEMB      28              0.0000000000
      3711        34  POPC      H15C           12.4447355136       24.7765989847       18.3399254277  MEMB      28              0.0000000000
      3712        34  POPC      C11             9.1609785302       23.3761642329       20.1072976012  MEMB      28              0.0000000000
      3713        34  POPC      H11A            8.2895799845       23.3904163967       20.7963421856  MEMB      28              0.0000000000
      3714        34  POPC      H11B           10.1182837456       23.2021695999       20.6435937340  MEMB      28              0.0000000000
      3715        34  POPC      P               9.1194821889       20.8493298942       19.5443503277  MEMB      28              0.0000000000
      3716        34  POPC      O13             8.4095408550       19.9941733910       18.5631443886  MEMB      28              0.0000000000
      3717        34  POPC      O14             8.8706064330       20.6321415773       20.9890911562  MEMB      28              0.0000000000
      3718        34  POPC      O12             8.8290679423       22.3228910656       19.1816004714  MEMB      28              0.0000000000
      3719        34  POPC      O11            10.6532961485       20.6607550412       19.3322831281  MEMB      28              0.0000000000
      3720        34  POPC      C1             11.3221451157       19.4737889008       19.7338835182  MEMB      28              0.0000000000
      3721        34  POPC      HA             10.6711149134       18.5770866543       19.8139175731  MEMB      28              0.0000000000
      3722        34  POPC      HB             11.8910539608       19.6449267952       20.6726994840  MEMB      28              0.0000000000
      3723        34  POPC      C2             12.2895791426       18.9027587335       18.5634749381  MEMB      28              0.0000000000
      3724        34  POPC      HS             13.0481989562       18.2694856550       19.0711968774  MEMB      28              0.0000000000
      3725        34  POPC      O21            12.8470478758       20.0135942950       17.7931361723  MEMB      28              0.0000000000
      3726        34  POPC      C21            13.7697750745       20.7018204466       18.4914450343  MEMB      28              0.0000000000
      3727        34  POPC      O22            14.1863481271       20.3572207235       19.5905592189  MEMB      28              0.0000000000
      3728        34  POPC      C22            14.2780902621       21.9070140325       17.6645655902  MEMB      28              0.0000000000
      3729        34  POPC      H2R            15.3318173360       21.6775066676       17.3975324802  MEMB      28              0.0000000000
      3730        34  POPC      H2S            14.1821900883       22.8067881400       18.3091823683  MEMB      28              0.0000000000
      3731        34  POPC      C3             11.4791059735       18.0111282190       17.5900414290  MEMB      28              0.0000000000
      3732        34  POPC      HX             11.0104411885       17.1820723564       18.1621786767  MEMB      28              0.0000000000
      3733        34  POPC      HY             12.1436651571       17.5421634193       16.8332360174  MEMB      28              0.0000000000
      3734        34  POPC      O31            10.2825925099       18.6663301707       17.0885550405  MEMB      28              0.0000000000
      3735        34  POPC      C31             9.9626233500       18.3972279299       15.8415330508  MEMB      28              0.0000000000
      3736        34  POPC      O32            10.3210176757       17.4235303727       15.2418621133  MEMB      28              0.0000000000
      3737        34  POPC      C32             8.9427410706       19.5100242832       15.3899353560  MEMB      28              0.0000000000
      3738        34  POPC      H2X             8.8327692785       20.3283708981       16.1332628691  MEMB      28              0.0000000000
      3739        34  POPC      H2Y             7.9194838668       19.0782832228       15.4193481524  MEMB      28              0.0000000000
      3740        34  POPC      C23            13.4487341017       21.9890126300       16.3231312642  MEMB      28              0.0000000000
      3741        34  POPC      H3R            12.3591055603       22.0363472381       16.5347676024  MEMB      28              0.0000000000
      3742        34  POPC      H3S            13.7209346747       21.1247431499       15.6802737139  MEMB      28              0.0000000000
      3743        34  POPC      C24            13.8007069756       23.2847073531       15.5903376305  MEMB      28              0.0000000000
      3744        34  POPC      H4R            14.8484455229       23.6528255433       15.6227966961  MEMB      28              0.0000000000
      3745        34  POPC      H4S            13.3076757647       23.9557551906       16.3258211518  MEMB      28              0.0000000000
      3746        34  POPC      C25            13.0536403012       23.4039218504       14.2641089139  MEMB      28              0.0000000000
      3747        34  POPC      H5R            13.1465852801       24.4673872601       13.9563368199  MEMB      28              0.0000000000
      3748        34  POPC      H5S            11.9921391176       23.1632441552       14.4868429941  MEMB      28              0.0000000000
      3749        34  POPC      C26            13.5952854391       22.6025699995       13.0500952844  MEMB      28              0.0000000000
      3750        34  POPC      H6R            14.0116750739       21.6524225509       13.4477894932  MEMB      28              0.0000000000
      3751        34  POPC      H6S            14.4490438146       23.0483671419       12.4963057833  MEMB      28              0.0000000000
      3752        34  POPC      C27            12.5367672140       22.0596467471       12.1527639227  MEMB      28              0.0000000000
      3753        34  POPC      H7R            12.3035835527       22.8879840719       11.4500524316  MEMB      28              0.0000000000
      3754        34  POPC      H7S            11.6950722609       21.7770451136       12.8206015353  MEMB      28              0.0000000000
      3755        34  POPC      C28            13.1185654664       20.8450089104       11.2706539746  MEMB      28              0.0000000000
      3756        34  POPC      H8R            12.6841806835       19.9297892429       11.7267283266  MEMB      28              0.0000000000
      3757        34  POPC      H8S            14.2054216621       20.7419660893       11.4766801838  MEMB      28              0.0000000000
      3758        34  POPC      C29            12.9493903928       20.9312367083        9.7903119171  MEMB      28              0.0000000000
      3759        34  POPC      H91            13.8928643505       21.2455484563        9.3201371907  MEMB      28              0.0000000000
      3760        34  POPC      C210           11.8059400167       20.6173944414        9.1119929448  MEMB      28              0.0000000000
      3761        34  POPC      H101           11.9576753357       20.6044406162        8.0225852926  MEMB      28              0.0000000000
      3762        34  POPC      C211           10.4827399041       20.0871268334        9.6122793918  MEMB      28              0.0000000000
      3763        34  POPC      H11R            9.7092250460       20.8349582803        9.3352526341  MEMB      28              0.0000000000
      3764        34  POPC      H11S           10.5340263090       19.9875127809       10.7176156843  MEMB      28              0.0000000000
      3765        34  POPC      C212           10.0002671238       18.7350318678        9.0278355108  MEMB      28              0.0000000000
      3766        34  POPC      H12R            9.1343700360       18.2885988351        9.5619152610  MEMB      28              0.0000000000
      3767        34  POPC      H12S           10.8537653742       18.0635239739        9.2622264073  MEMB      28              0.0000000000
      3768        34  POPC      C213            9.7326454478       18.6692146255        7.4927874890  MEMB      28              0.0000000000
      3769        34  POPC      H13R            9.5168642622       17.5994881677        7.2843523849  MEMB      28              0.0000000000
      3770        34  POPC      H13S           10.6798414125       19.0324120332        7.0397653518  MEMB      28              0.0000000000
      3771        34  POPC      C214            8.4725759585       19.5275226693        7.0650779135  MEMB      28              0.0000000000
      3772        34  POPC      H14R            8.2826724111       20.3566225393        7.7798167668  MEMB      28              0.0000000000
      3773        34  POPC      H14S            7.5422524483       18.9465707568        6.8881205053  MEMB      28              0.0000000000
      3774        34  POPC      C215            8.6813124870       20.1432725606        5.6726925853  MEMB      28              0.0000000000
      3775        34  POPC      H15R            9.0275903458       19.3151796237        5.0179598142  MEMB      28              0.0000000000
      3776        34  POPC      H15S            9.4373032451       20.9561765093        5.6281256368  MEMB      28              0.0000000000
      3777        34  POPC      C216            7.3537656176       20.7837130144        5.1232660423  MEMB      28              0.0000000000
      3778        34  POPC      H16R            7.2568069312       21.7011622180        5.7423027467  MEMB      28              0.0000000000
      3779        34  POPC      H16S            6.5109773265       20.1228881671        5.4187986474  MEMB      28              0.0000000000
      3780        34  POPC      C217            7.3910195406       20.9350468241        3.6757580225  MEMB      28              0.0000000000
      3781        34  POPC      H17R            8.1595613848       21.7050623250        3.4505010241  MEMB      28              0.0000000000
      3782        34  POPC      H17S            6.4084851900       21.3967536482        3.4395923314  MEMB      28              0.0000000000
      3783        34  POPC      C218            7.5274986765       19.7862826186        2.6623232671  MEMB      28              0.0000000000
      3784        34  POPC      H18R            8.5447913136       19.3397044664        2.6644406442  MEMB      28              0.0000000000
      3785        34  POPC      H18S            7.3661079411       20.1910481591        1.6403452082  MEMB      28              0.0000000000
      3786        34  POPC      H18T            6.7759885649       18.9743358103        2.7637914889  MEMB      28              0.0000000000
      3787        34  POPC      C33             9.2917497385       20.0809473046       13.9859514770  MEMB      28              0.0000000000
      3788        34  POPC      H3X             9.3376151895       19.2394462223       13.2620088648  MEMB      28              0.0000000000
      3789        34  POPC      H3Y            10.2460778350       20.6492219175       13.9605971214  MEMB      28              0.0000000000
      3790        34  POPC      C34             8.3493054303       21.1186775598       13.5423663682  MEMB      28              0.0000000000
      3791        34  POPC      H4X             8.3433653484       21.9173879909       14.3146015523  MEMB      28              0.0000000000
      3792        34  POPC      H4Y             7.3252625659       20.6896390968       13.5025773230  MEMB      28              0.0000000000
      3793        34  POPC      C35             8.6339168571       21.7920885217       12.1980366105  MEMB      28              0.0000000000
      3794        34  POPC      H5X             8.5065935694       20.9692962861       11.4624268287  MEMB      28              0.0000000000
      3795        34  POPC      H5Y             9.7022036214       22.0579091893       12.0482909086  MEMB      28              0.0000000000
      3796        34  POPC      C36             7.7424080382       22.9229018395       11.7067700791  MEMB      28              0.0000000000
      3797        34  POPC      H6X             7.9320084272       23.8307411222       12.3184888835  MEMB      28              0.0000000000
      3798        34  POPC      H6Y             6.6978640079       22.6788324638       11.9960424787  MEMB      28              0.0000000000
      3799        34  POPC      C37             7.8534934350       23.2791053021       10.2415106193  MEMB      28              0.0000000000
      3800        34  POPC      H7X             7.1221966551       24.0775583812        9.9925145697  MEMB      28              0.0000000000
      3801        34  POPC      H7Y             7.6131463383       22.4051565531        9.5990407529  MEMB      28              0.0000000000
      3802        34  POPC      C38             9.2221936813       23.8143729980        9.8611352640  MEMB      28              0.0000000000
      3803        34  POPC      H8X             9.8671323571       22.9180941586        9.9838507050  MEMB      28              0.0000000000
      3804        34  POPC      H8Y             9.5427560812       24.5352486419       10.6433750872  MEMB      28              0.0000000000
      3805        34  POPC      C39             9.3214301854       24.3592345567        8.4884200894  MEMB      28              0.0000000000
      3806        34  POPC      H9X             8.5074996928       25.0882866888        8.2876183617  MEMB      28              0.0000000000
      3807        34  POPC      H9Y             9.1404294362       23.4674426559        7.8510290237  MEMB      28              0.0000000000
      3808        34  POPC      C310           10.6787932591       24.8809846977        8.3509562221  MEMB      28              0.0000000000
      3809        34  POPC      H10X           11.4514941108       24.0967382705        8.4999929874  MEMB      28              0.0000000000
      3810        34  POPC      H10Y           10.9155099927       25.6699127946        9.0965286550  MEMB      28              0.0000000000
      3811        34  POPC      C311           10.9305019674       25.5054453476        6.9660630703  MEMB      28              0.0000000000
      3812        34  POPC      H11X           11.8435612833       26.1308184148        6.8683284848  MEMB      28              0.0000000000
      3813        34  POPC      H11Y            9.9941327729       26.0036030969        6.6353479499  MEMB      28              0.0000000000
      3814        34  POPC      C312           11.0929440152       24.3682874312        6.0035886868  MEMB      28              0.0000000000
      3815        34  POPC      H12X           10.2791164775       23.6138765954        6.0571594866  MEMB      28              0.0000000000
      3816        34  POPC      H12Y           11.9772746607       23.7227205772        6.1920661394  MEMB      28              0.0000000000
      3817        34  POPC      C313           10.9316774271       24.7667420177        4.5060148906  MEMB      28              0.0000000000
      3818        34  POPC      H13X           11.7776840087       25.4384516170        4.2464000084  MEMB      28              0.0000000000
      3819        34  POPC      H13Y           10.0182595002       25.3812262291        4.3563556703  MEMB      28              0.0000000000
      3820        34  POPC      C314           11.0970990168       23.5951803818        3.5324865723  MEMB      28              0.0000000000
      3821        34  POPC      H14X           10.3095417608       22.8233751003        3.6681001484  MEMB      28              0.0000000000
      3822        34  POPC      H14Y           11.9628805764       22.9961348303        3.8872934877  MEMB      28              0.0000000000
      3823        34  POPC      C315           11.2876123351       24.0582821994        2.1058213515  MEMB      28              0.0000000000
      3824        34  POPC      H15X           11.8763055177       24.9965218777        2.1922345201  MEMB      28              0.0000000000
      3825        34  POPC      H15Y           10.3293707913       24.2539411745        1.5787428803  MEMB      28              0.0000000000
      3826        34  POPC      C316           12.1466789813       23.1182677449        1.2269933456  MEMB      28              0.0000000000
      3827        34  POPC      H16X           11.9634908306       23.4051794697        0.1694286953  MEMB      28              0.0000000000
      3828        34  POPC      H16Y           11.8896151486       22.0378311915        1.2569227642  MEMB      28              0.0000000000
      3829        34  POPC      H16Z           13.2506676662       23.2257121416        1.2901284634  MEMB      28              0.0000000000
      3830        35  POPC      N             -20.2355574077      -15.6680022540       20.2916726248  MEMB      29              0.0000000000
      3831        35  POPC      C12           -20.0723847105      -16.0262457913       18.8252266384  MEMB      29              0.0000000000
      3832        35  POPC      H12A          -20.9877503447      -15.8527221894       18.2789708512  MEMB      29              0.0000000000
      3833        35  POPC      H12B          -19.8925233927      -17.0869044603       18.7300789002  MEMB      29              0.0000000000
      3834        35  POPC      C13           -21.2263419224      -16.5731570192       20.9335074794  MEMB      29              0.0000000000
      3835        35  POPC      H13A          -21.3440257171      -16.3482095136       21.9832451034  MEMB      29              0.0000000000
      3836        35  POPC      H13B          -22.1646779689      -16.4971957630       20.4042104867  MEMB      29              0.0000000000
      3837        35  POPC      H13C          -20.9436285958      -17.6151867489       20.9080722089  MEMB      29              0.0000000000
      3838        35  POPC      C14           -18.9405599284      -15.6445390191       21.0388094270  MEMB      29              0.0000000000
      3839        35  POPC      H14A          -18.4943873392      -16.6260452106       21.1018622081  MEMB      29              0.0000000000
      3840        35  POPC      H14B          -18.1289541001      -15.1013526793       20.5776754188  MEMB      29              0.0000000000
      3841        35  POPC      H14C          -19.0737708244      -15.2556828957       22.0375314731  MEMB      29              0.0000000000
      3842        35  POPC      C15           -20.7418279793      -14.1916210208       20.4254313709  MEMB      29              0.0000000000
      3843        35  POPC      H15A          -20.1093541310      -13.5075894260       19.8791005720  MEMB      29              0.0000000000
      3844        35  POPC      H15B          -20.6598945627      -14.0456065233       21.4923740991  MEMB      29              0.0000000000
      3845        35  POPC      H15C          -21.7687695790      -14.1478562228       20.0939558407  MEMB      29              0.0000000000
      3846        35  POPC      C11           -18.8226918847      -15.3491690374       18.0917709835  MEMB      29              0.0000000000
      3847        35  POPC      H11A          -18.8802917153      -14.2502490381       18.2446699332  MEMB      29              0.0000000000
      3848        35  POPC      H11B          -18.9436426510      -15.5151231636       16.9999142530  MEMB      29              0.0000000000
      3849        35  POPC      P             -17.0442175239      -17.2182291234       17.8377862834  MEMB      29              0.0000000000
      3850        35  POPC      O13           -16.2402189441      -17.9003602269       18.9245700320  MEMB      29              0.0000000000
      3851        35  POPC      O14           -16.3882388172      -16.8545520590       16.5924016740  MEMB      29              0.0000000000
      3852        35  POPC      O12           -17.5770241092      -15.8731927909       18.5354585062  MEMB      29              0.0000000000
      3853        35  POPC      O11           -18.3213692448      -18.0499113986       17.5033649362  MEMB      29              0.0000000000
      3854        35  POPC      C1            -18.7005895187      -19.0762039773       18.4362894465  MEMB      29              0.0000000000
      3855        35  POPC      HA            -19.0285588465      -18.6081277911       19.3890023781  MEMB      29              0.0000000000
      3856        35  POPC      HB            -17.8462795738      -19.7019100516       18.7723953804  MEMB      29              0.0000000000
      3857        35  POPC      C2            -19.7335659519      -20.0605342114       17.8459284846  MEMB      29              0.0000000000
      3858        35  POPC      HS            -19.8624824793      -20.9941080093       18.4342665122  MEMB      29              0.0000000000
      3859        35  POPC      O21           -19.4104457780      -20.4497386063       16.4673919621  MEMB      29              0.0000000000
      3860        35  POPC      C21           -18.2615216116      -21.0721609152       16.2287707870  MEMB      29              0.0000000000
      3861        35  POPC      O22           -17.5191097454      -21.4940352278       17.1209707104  MEMB      29              0.0000000000
      3862        35  POPC      C22           -17.9351227859      -20.9382864353       14.7301970637  MEMB      29              0.0000000000
      3863        35  POPC      H2R           -18.8530059163      -20.9996299094       14.1072617419  MEMB      29              0.0000000000
      3864        35  POPC      H2S           -17.2348928083      -21.7460287840       14.4276225698  MEMB      29              0.0000000000
      3865        35  POPC      C3            -21.2028179316      -19.3671301014       17.9224036934  MEMB      29              0.0000000000
      3866        35  POPC      HX            -21.1430884726      -19.0727088637       18.9920155063  MEMB      29              0.0000000000
      3867        35  POPC      HY            -21.8576659810      -20.2092281246       17.6119757249  MEMB      29              0.0000000000
      3868        35  POPC      O31           -21.2990672413      -18.1293939217       17.1266764973  MEMB      29              0.0000000000
      3869        35  POPC      C31           -21.8320572211      -18.3732607649       15.8910482756  MEMB      29              0.0000000000
      3870        35  POPC      O32           -22.3372615695      -19.3818074679       15.5401578478  MEMB      29              0.0000000000
      3871        35  POPC      C32           -21.4876519495      -17.1978209662       14.9677965460  MEMB      29              0.0000000000
      3872        35  POPC      H2X           -20.6941698480      -16.5752308524       15.4337244319  MEMB      29              0.0000000000
      3873        35  POPC      H2Y           -22.3577575392      -16.5098678194       14.9048859588  MEMB      29              0.0000000000
      3874        35  POPC      C23           -17.0372678747      -19.6995267663       14.4747545498  MEMB      29              0.0000000000
      3875        35  POPC      H3R           -16.4518624915      -19.4402864720       15.3827286314  MEMB      29              0.0000000000
      3876        35  POPC      H3S           -17.6492893755      -18.8130931001       14.2027508153  MEMB      29              0.0000000000
      3877        35  POPC      C24           -16.1487424083      -19.9466595582       13.2772490005  MEMB      29              0.0000000000
      3878        35  POPC      H4R           -16.6086184461      -20.2740957090       12.3203683707  MEMB      29              0.0000000000
      3879        35  POPC      H4S           -15.5396003137      -20.8290427254       13.5682243398  MEMB      29              0.0000000000
      3880        35  POPC      C25           -15.2171319781      -18.7703449225       12.8562174118  MEMB      29              0.0000000000
      3881        35  POPC      H5R           -14.4467397555      -19.1047578065       12.1289042589  MEMB      29              0.0000000000
      3882        35  POPC      H5S           -14.6695698232      -18.2795827710       13.6890734947  MEMB      29              0.0000000000
      3883        35  POPC      C26           -16.0890037321      -17.6446673199       12.2844492459  MEMB      29              0.0000000000
      3884        35  POPC      H6R           -16.6018781620      -17.0883339127       13.0979440653  MEMB      29              0.0000000000
      3885        35  POPC      H6S           -16.8485190958      -18.0692275263       11.5936482635  MEMB      29              0.0000000000
      3886        35  POPC      C27           -15.2614772005      -16.6527755574       11.4499339700  MEMB      29              0.0000000000
      3887        35  POPC      H7R           -14.5582596269      -16.0559715106       12.0693135205  MEMB      29              0.0000000000
      3888        35  POPC      H7S           -15.9763903573      -15.8997935381       11.0546639612  MEMB      29              0.0000000000
      3889        35  POPC      C28           -14.5550772201      -17.2678043725       10.2381859141  MEMB      29              0.0000000000
      3890        35  POPC      H8R           -15.4088118018      -17.7407418536        9.7073483563  MEMB      29              0.0000000000
      3891        35  POPC      H8S           -13.9116177441      -18.0700932223       10.6584395589  MEMB      29              0.0000000000
      3892        35  POPC      C29           -13.7915716628      -16.3379476548        9.4238117759  MEMB      29              0.0000000000
      3893        35  POPC      H91           -12.8808169174      -15.9500524001        9.9034603243  MEMB      29              0.0000000000
      3894        35  POPC      C210          -14.1477046320      -15.9740004531        8.1788331806  MEMB      29              0.0000000000
      3895        35  POPC      H101          -13.5006711653      -15.2698345105        7.6352362591  MEMB      29              0.0000000000
      3896        35  POPC      C211          -15.3255703983      -16.3502615841        7.3443505692  MEMB      29              0.0000000000
      3897        35  POPC      H11R          -15.4071679070      -15.7301350756        6.4261428413  MEMB      29              0.0000000000
      3898        35  POPC      H11S          -16.3214493510      -16.2954991292        7.8337862357  MEMB      29              0.0000000000
      3899        35  POPC      C212          -15.0220145734      -17.7733969438        6.6984617910  MEMB      29              0.0000000000
      3900        35  POPC      H12R          -14.0166065546      -18.2167138245        6.8626120601  MEMB      29              0.0000000000
      3901        35  POPC      H12S          -15.1278804882      -17.6989047287        5.5950292493  MEMB      29              0.0000000000
      3902        35  POPC      C213          -16.1208982815      -18.7643963625        7.0691728827  MEMB      29              0.0000000000
      3903        35  POPC      H13R          -17.0813763957      -18.3242691836        6.7255294343  MEMB      29              0.0000000000
      3904        35  POPC      H13S          -16.1958765238      -18.8596032479        8.1735441336  MEMB      29              0.0000000000
      3905        35  POPC      C214          -16.0437893466      -20.2024140605        6.5406805885  MEMB      29              0.0000000000
      3906        35  POPC      H14R          -16.8719381875      -20.8584111592        6.8844225572  MEMB      29              0.0000000000
      3907        35  POPC      H14S          -15.0557892325      -20.5736967514        6.8875610567  MEMB      29              0.0000000000
      3908        35  POPC      C215          -15.9822450235      -20.2684085013        4.9913744650  MEMB      29              0.0000000000
      3909        35  POPC      H15R          -16.2009287696      -21.3405306706        4.7988848132  MEMB      29              0.0000000000
      3910        35  POPC      H15S          -15.0172130264      -19.9084735846        4.5748646714  MEMB      29              0.0000000000
      3911        35  POPC      C216          -17.0295539422      -19.3938659550        4.1962925630  MEMB      29              0.0000000000
      3912        35  POPC      H16R          -17.1097743692      -18.3858626493        4.6565261558  MEMB      29              0.0000000000
      3913        35  POPC      H16S          -17.9864668829      -19.9545453042        4.2616922250  MEMB      29              0.0000000000
      3914        35  POPC      C217          -16.6475840402      -19.2279581677        2.7425359625  MEMB      29              0.0000000000
      3915        35  POPC      H17R          -15.6081179835      -18.8756724718        2.5701228170  MEMB      29              0.0000000000
      3916        35  POPC      H17S          -17.3553666610      -18.4224495305        2.4518120808  MEMB      29              0.0000000000
      3917        35  POPC      C218          -16.8353602828      -20.5548250484        1.9652141827  MEMB      29              0.0000000000
      3918        35  POPC      H18R          -16.8934387129      -20.4286499961        0.8629307650  MEMB      29              0.0000000000
      3919        35  POPC      H18S          -17.6446647296      -21.2182007431        2.3384166401  MEMB      29              0.0000000000
      3920        35  POPC      H18T          -15.8862314137      -21.1029809873        2.1468730735  MEMB      29              0.0000000000
      3921        35  POPC      C33           -20.9647294455      -17.8085407808       13.5397032169  MEMB      29              0.0000000000
      3922        35  POPC      H3X           -21.6941438900      -18.5346899325       13.1213933084  MEMB      29              0.0000000000
      3923        35  POPC      H3Y           -20.0142233446      -18.3711983372       13.6591836137  MEMB      29              0.0000000000
      3924        35  POPC      C34           -20.6504025154      -16.8163075985       12.4041545474  MEMB      29              0.0000000000
      3925        35  POPC      H4X           -19.8482776300      -16.1070911552       12.7006821468  MEMB      29              0.0000000000
      3926        35  POPC      H4Y           -21.5421201690      -16.1600169118       12.3122702226  MEMB      29              0.0000000000
      3927        35  POPC      C35           -20.2652709320      -17.2745066746       10.9592955719  MEMB      29              0.0000000000
      3928        35  POPC      H5X           -19.3916960714      -17.9528695188       11.0642334915  MEMB      29              0.0000000000
      3929        35  POPC      H5Y           -20.0223555725      -16.3099683501       10.4643420858  MEMB      29              0.0000000000
      3930        35  POPC      C36           -21.4552118106      -18.0278616523       10.2529554880  MEMB      29              0.0000000000
      3931        35  POPC      H6X           -22.2300741873      -17.2367498901       10.1632267327  MEMB      29              0.0000000000
      3932        35  POPC      H6Y           -21.8492443112      -18.8712296201       10.8594122071  MEMB      29              0.0000000000
      3933        35  POPC      C37           -20.8801092384      -18.6149710796        8.9951485812  MEMB      29              0.0000000000
      3934        35  POPC      H7X           -20.2379986461      -19.4987450384        9.1975319070  MEMB      29              0.0000000000
      3935        35  POPC      H7Y           -20.2035777290      -17.9492888091        8.4176608213  MEMB      29              0.0000000000
      3936        35  POPC      C38           -22.0610014373      -19.0893544820        8.1415239564  MEMB      29              0.0000000000
      3937        35  POPC      H8X           -22.8411417375      -18.2994853160        8.0989918876  MEMB      29              0.0000000000
      3938        35  POPC      H8Y           -22.4571421725      -19.9304436079        8.7497692804  MEMB      29              0.0000000000
      3939        35  POPC      C39           -21.7908049195      -19.6773074498        6.7566276004  MEMB      29              0.0000000000
      3940        35  POPC      H9X           -22.7921269009      -20.0929730016        6.5139403205  MEMB      29              0.0000000000
      3941        35  POPC      H9Y           -21.0662517499      -20.5147608747        6.8461568193  MEMB      29              0.0000000000
      3942        35  POPC      C310          -21.1950418468      -18.6275615855        5.8175566980  MEMB      29              0.0000000000
      3943        35  POPC      H10X          -20.2044024387      -18.2595157303        6.1603347552  MEMB      29              0.0000000000
      3944        35  POPC      H10Y          -21.8625593349      -17.7398183022        5.8431178100  MEMB      29              0.0000000000
      3945        35  POPC      C311          -21.3000521497      -19.0525681679        4.2998205759  MEMB      29              0.0000000000
      3946        35  POPC      H11X          -22.3904113796      -19.1411554961        4.1059393542  MEMB      29              0.0000000000
      3947        35  POPC      H11Y          -20.8101771375      -20.0256648052        4.0820453230  MEMB      29              0.0000000000
      3948        35  POPC      C312          -20.8012554114      -17.9668226339        3.3876392350  MEMB      29              0.0000000000
      3949        35  POPC      H12X          -21.1889727184      -18.3350397593        2.4137750599  MEMB      29              0.0000000000
      3950        35  POPC      H12Y          -19.6924997699      -17.9675636601        3.3170619823  MEMB      29              0.0000000000
      3951        35  POPC      C313          -21.3355859966      -16.5702844842        3.5869907913  MEMB      29              0.0000000000
      3952        35  POPC      H13X          -21.0965264484      -16.1542766949        4.5890432247  MEMB      29              0.0000000000
      3953        35  POPC      H13Y          -22.4109138874      -16.3226081618        3.4579668332  MEMB      29              0.0000000000
      3954        35  POPC      C314          -20.7644934001      -15.4698592411        2.6154187271  MEMB      29              0.0000000000
      3955        35  POPC      H14X          -19.7118320602      -15.4023895113        2.9642353345  MEMB      29              0.0000000000
      3956        35  POPC      H14Y          -21.1895929351      -14.4571350822        2.7827531097  MEMB      29              0.0000000000
      3957        35  POPC      C315          -20.8892880044      -15.9024870617        1.1557241692  MEMB      29              0.0000000000
      3958        35  POPC      H15X          -21.8846189103      -16.3220970910        0.8957925625  MEMB      29              0.0000000000
      3959        35  POPC      H15Y          -20.0774389246      -16.5798638563        0.8145751210  MEMB      29              0.0000000000
      3960        35  POPC      C316          -20.7659296040      -14.6176907823        0.3150885440  MEMB      29              0.0000000000
      3961        35  POPC      H16X          -20.8561287617      -14.7589779139       -0.7831926921  MEMB      29              0.0000000000
      3962        35  POPC      H16Y          -19.8150739778      -14.1530808487        0.6532194349  MEMB      29              0.0000000000
      3963        35  POPC      H16Z          -21.6360459049      -14.0315906385        0.6807470318  MEMB      29              0.0000000000
      3964        36  POPC      N               4.9812528053      -26.8394661907       18.5451587086  MEMB      30              0.0000000000
      3965        36  POPC      C12             3.7903770832      -25.8625339112       18.5860724587  MEMB      30              0.0000000000
      3966        36  POPC      H12A            2.9902918443      -26.3667907612       19.1075976483  MEMB      30              0.0000000000
      3967        36  POPC      H12B            3.4062231092      -25.7543139536       17.5825217300  MEMB      30              0.0000000000
      3968        36  POPC      C13             5.4564961242      -27.1247561710       20.0281692416  MEMB      30              0.0000000000
      3969        36  POPC      H13A            5.8608059114      -26.2127860952       20.4419858821  MEMB      30              0.0000000000
      3970        36  POPC      H13B            4.6105567167      -27.5510560761       20.5468743388  MEMB      30              0.0000000000
      3971        36  POPC      H13C            6.1685255211      -27.9213689574       19.8706186428  MEMB      30              0.0000000000
      3972        36  POPC      C14             4.4434988267      -28.1415773557       17.9935867782  MEMB      30              0.0000000000
      3973        36  POPC      H14A            3.8631074038      -27.9398136154       17.1054217167  MEMB      30              0.0000000000
      3974        36  POPC      H14B            5.2188228528      -28.7600863681       17.5661300002  MEMB      30              0.0000000000
      3975        36  POPC      H14C            3.9425421402      -28.7436286242       18.7372107914  MEMB      30              0.0000000000
      3976        36  POPC      C15             6.1625982279      -26.4094407894       17.5733090323  MEMB      30              0.0000000000
      3977        36  POPC      H15A            6.6098291388      -25.4461461955       17.7693905123  MEMB      30              0.0000000000
      3978        36  POPC      H15B            5.7735408407      -26.3579071188       16.5671387967  MEMB      30              0.0000000000
      3979        36  POPC      H15C            6.8472706224      -27.2439840310       17.6073921100  MEMB      30              0.0000000000
      3980        36  POPC      C11             4.1615116873      -24.4853695729       19.1717897938  MEMB      30              0.0000000000
      3981        36  POPC      H11A            4.2411125279      -24.6500684948       20.2676268795  MEMB      30              0.0000000000
      3982        36  POPC      H11B            3.3470283765      -23.7515398448       18.9917013962  MEMB      30              0.0000000000
      3983        36  POPC      P               6.1834039704      -22.8577716810       19.4880492076  MEMB      30              0.0000000000
      3984        36  POPC      O13             7.6034219593      -23.0518213595       19.3618610858  MEMB      30              0.0000000000
      3985        36  POPC      O14             5.6934110729      -22.7987162668       20.8846380386  MEMB      30              0.0000000000
      3986        36  POPC      O12             5.3718714647      -23.9797745584       18.5963694562  MEMB      30              0.0000000000
      3987        36  POPC      O11             5.7255727700      -21.5959090586       18.7709962038  MEMB      30              0.0000000000
      3988        36  POPC      C1              6.3506597509      -21.0457609822       17.5901307796  MEMB      30              0.0000000000
      3989        36  POPC      HA              7.3163506769      -21.4972947482       17.2772743666  MEMB      30              0.0000000000
      3990        36  POPC      HB              6.6679156417      -19.9834284869       17.6616790815  MEMB      30              0.0000000000
      3991        36  POPC      C2              5.2712703909      -20.9647124601       16.4423756146  MEMB      30              0.0000000000
      3992        36  POPC      HS              4.3892304224      -20.2913365639       16.4961497442  MEMB      30              0.0000000000
      3993        36  POPC      O21             4.7306274729      -22.3272269096       16.3491572143  MEMB      30              0.0000000000
      3994        36  POPC      C21             3.8366280096      -22.5383463032       15.4312732719  MEMB      30              0.0000000000
      3995        36  POPC      O22             3.2288480123      -21.6684117868       14.8136728390  MEMB      30              0.0000000000
      3996        36  POPC      C22             3.6989182081      -24.0780937062       15.2033985468  MEMB      30              0.0000000000
      3997        36  POPC      H2R             3.2106642497      -24.5239438825       16.0962292233  MEMB      30              0.0000000000
      3998        36  POPC      H2S             4.7224237116      -24.4766515418       15.0363379212  MEMB      30              0.0000000000
      3999        36  POPC      C3              5.9946562584      -20.4996308261       15.0756981958  MEMB      30              0.0000000000
      4000        36  POPC      HX              6.4057113700      -19.4905616733       15.2928018278  MEMB      30              0.0000000000
      4001        36  POPC      HY              5.1508049340      -20.3501090287       14.3686768649  MEMB      30              0.0000000000
      4002        36  POPC      O31             6.9883716969      -21.4382866169       14.6691042065  MEMB      30              0.0000000000
      4003        36  POPC      C31             6.8717399899      -21.9286751775       13.4645724896  MEMB      30              0.0000000000
      4004        36  POPC      O32             5.9758129150      -21.6167588405       12.6966801205  MEMB      30              0.0000000000
      4005        36  POPC      C32             7.9766747160      -22.9273350745       13.2252588344  MEMB      30              0.0000000000
      4006        36  POPC      H2X             7.7716140923      -23.8338433446       13.8339575042  MEMB      30              0.0000000000
      4007        36  POPC      H2Y             8.9570017374      -22.4498879253       13.4381527542  MEMB      30              0.0000000000
      4008        36  POPC      C23             2.9718490412      -24.4101269308       13.8725528685  MEMB      30              0.0000000000
      4009        36  POPC      H3R             2.1126917211      -23.7061140141       13.8494157547  MEMB      30              0.0000000000
      4010        36  POPC      H3S             2.7168621536      -25.4884949344       13.7923955987  MEMB      30              0.0000000000
      4011        36  POPC      C24             3.8367377715      -24.1427399063       12.5880432108  MEMB      30              0.0000000000
      4012        36  POPC      H4R             4.8256352906      -24.6440264204       12.6595585599  MEMB      30              0.0000000000
      4013        36  POPC      H4S             4.0428034023      -23.0524022041       12.5330736030  MEMB      30              0.0000000000
      4014        36  POPC      C25             3.2558077128      -24.6846275569       11.2657130562  MEMB      30              0.0000000000
      4015        36  POPC      H5R             2.1922702794      -24.4136483349       11.0931469508  MEMB      30              0.0000000000
      4016        36  POPC      H5S             3.3004179136      -25.7685065849       11.5055822825  MEMB      30              0.0000000000
      4017        36  POPC      C26             4.0624119885      -24.2243160732       10.0181193270  MEMB      30              0.0000000000
      4018        36  POPC      H6R             5.0861703896      -24.6088466477       10.2140185290  MEMB      30              0.0000000000
      4019        36  POPC      H6S             4.1376998335      -23.1175769190        9.9566283877  MEMB      30              0.0000000000
      4020        36  POPC      C27             3.4977656105      -24.5198427449        8.6703137931  MEMB      30              0.0000000000
      4021        36  POPC      H7R             2.5185920281      -24.0548392912        8.4267733057  MEMB      30              0.0000000000
      4022        36  POPC      H7S             3.1742483843      -25.5790087019        8.5818545533  MEMB      30              0.0000000000
      4023        36  POPC      C28             4.4271162991      -24.3639077759        7.4324030352  MEMB      30              0.0000000000
      4024        36  POPC      H8R             3.8347037327      -24.9564603872        6.7028482438  MEMB      30              0.0000000000
      4025        36  POPC      H8S             5.3772223287      -24.9387447490        7.4667831092  MEMB      30              0.0000000000
      4026        36  POPC      C29             4.7008594005      -22.9892275832        7.0212645986  MEMB      30              0.0000000000
      4027        36  POPC      H91             5.0494877594      -22.2628631515        7.7701658572  MEMB      30              0.0000000000
      4028        36  POPC      C210            4.4087403348      -22.4448895379        5.8113920789  MEMB      30              0.0000000000
      4029        36  POPC      H101            4.4252288764      -21.3450248869        5.8063045244  MEMB      30              0.0000000000
      4030        36  POPC      C211            3.7329161449      -23.1693101183        4.7100396962  MEMB      30              0.0000000000
      4031        36  POPC      H11R            4.2396763477      -24.1306433540        4.4790560975  MEMB      30              0.0000000000
      4032        36  POPC      H11S            3.9993229662      -22.5437259703        3.8314082552  MEMB      30              0.0000000000
      4033        36  POPC      C212            2.2061312518      -23.2387230239        4.9528372402  MEMB      30              0.0000000000
      4034        36  POPC      H12R            1.7518526336      -22.2392323456        5.1230441457  MEMB      30              0.0000000000
      4035        36  POPC      H12S            2.0873843506      -23.8787306751        5.8531757861  MEMB      30              0.0000000000
      4036        36  POPC      C213            1.4985735557      -23.9098622455        3.7175666973  MEMB      30              0.0000000000
      4037        36  POPC      H13R            0.4014109914      -23.7420481552        3.7664942059  MEMB      30              0.0000000000
      4038        36  POPC      H13S            1.6250695100      -25.0136049683        3.7090800205  MEMB      30              0.0000000000
      4039        36  POPC      C214            1.9221327752      -23.2654064134        2.3623531281  MEMB      30              0.0000000000
      4040        36  POPC      H14R            2.9135791835      -23.6712384610        2.0679803657  MEMB      30              0.0000000000
      4041        36  POPC      H14S            1.9005757233      -22.1572749859        2.4391697229  MEMB      30              0.0000000000
      4042        36  POPC      C215            0.9871226782      -23.7756926710        1.2197507040  MEMB      30              0.0000000000
      4043        36  POPC      H15R           -0.0635837550      -23.5088958642        1.4629723396  MEMB      30              0.0000000000
      4044        36  POPC      H15S            1.0917706665      -24.8800484479        1.2811381093  MEMB      30              0.0000000000
      4045        36  POPC      C216            1.4578529086      -23.3382745178       -0.1926803356  MEMB      30              0.0000000000
      4046        36  POPC      H16R            0.9896634067      -23.9037707977       -1.0265468693  MEMB      30              0.0000000000
      4047        36  POPC      H16S            2.4922447258      -23.7421114497       -0.2283179840  MEMB      30              0.0000000000
      4048        36  POPC      C217            1.4234057188      -21.8124624223       -0.5220453786  MEMB      30              0.0000000000
      4049        36  POPC      H17R            2.0818023007      -21.6921849557       -1.4088194362  MEMB      30              0.0000000000
      4050        36  POPC      H17S            1.9123900164      -21.2016708784        0.2667187045  MEMB      30              0.0000000000
      4051        36  POPC      C218            0.0133816911      -21.2405588144       -0.6713154952  MEMB      30              0.0000000000
      4052        36  POPC      H18R           -0.5391748816      -21.6977238318       -1.5198461817  MEMB      30              0.0000000000
      4053        36  POPC      H18S            0.1387950765      -20.1639298385       -0.9151647783  MEMB      30              0.0000000000
      4054        36  POPC      H18T           -0.4865453618      -21.2063179661        0.3202587588  MEMB      30              0.0000000000
      4055        36  POPC      C33             7.8897367772      -23.5160340636       11.7538974192  MEMB      30              0.0000000000
      4056        36  POPC      H3X             8.1346146416      -22.6341448902       11.1241138375  MEMB      30              0.0000000000
      4057        36  POPC      H3Y             6.8644745554      -23.9236359795       11.6234407927  MEMB      30              0.0000000000
      4058        36  POPC      C34             8.9457542465      -24.5695911479       11.5867614401  MEMB      30              0.0000000000
      4059        36  POPC      H4X             8.6687345380      -25.4749195191       12.1681061153  MEMB      30              0.0000000000
      4060        36  POPC      H4Y             9.9140170733      -24.2155039323       12.0007787049  MEMB      30              0.0000000000
      4061        36  POPC      C35             9.2087211761      -24.9424474233       10.1111076860  MEMB      30              0.0000000000
      4062        36  POPC      H5X             9.9131030659      -25.7789081406       10.3073256880  MEMB      30              0.0000000000
      4063        36  POPC      H5Y             9.5517534590      -24.0188792558        9.5976183734  MEMB      30              0.0000000000
      4064        36  POPC      C36             8.0003610011      -25.6561438882        9.4461798256  MEMB      30              0.0000000000
      4065        36  POPC      H6X             7.2205035185      -24.8688358737        9.3668728130  MEMB      30              0.0000000000
      4066        36  POPC      H6Y             7.6384909439      -26.3755604807       10.2115619903  MEMB      30              0.0000000000
      4067        36  POPC      C37             8.1516981251      -26.2223831455        8.0376446575  MEMB      30              0.0000000000
      4068        36  POPC      H7X             7.2968535068      -26.9193494115        7.9042294512  MEMB      30              0.0000000000
      4069        36  POPC      H7Y             9.0693282787      -26.8367970861        7.9161069306  MEMB      30              0.0000000000
      4070        36  POPC      C38             8.1709052723      -25.1026181066        6.9520522428  MEMB      30              0.0000000000
      4071        36  POPC      H8X             8.9935090730      -24.4004259796        7.2061578586  MEMB      30              0.0000000000
      4072        36  POPC      H8Y             7.1637650363      -24.6517933912        6.8226422964  MEMB      30              0.0000000000
      4073        36  POPC      C39             8.5272983555      -25.5980990379        5.5576670724  MEMB      30              0.0000000000
      4074        36  POPC      H9X             7.8949772470      -26.4506971602        5.2296922346  MEMB      30              0.0000000000
      4075        36  POPC      H9Y             9.5739247352      -25.9690075216        5.5940160207  MEMB      30              0.0000000000
      4076        36  POPC      C310            8.6392653979      -24.5483013178        4.4394026023  MEMB      30              0.0000000000
      4077        36  POPC      H10X            9.6682814850      -24.1325330456        4.4902298108  MEMB      30              0.0000000000
      4078        36  POPC      H10Y            7.9193922628      -23.7087777617        4.5457229839  MEMB      30              0.0000000000
      4079        36  POPC      C311            8.6483163722      -25.2372036331        3.0954374656  MEMB      30              0.0000000000
      4080        36  POPC      H11X            9.0737969756      -26.2629660029        3.1285929382  MEMB      30              0.0000000000
      4081        36  POPC      H11Y            9.2797224117      -24.6845634009        2.3672646817  MEMB      30              0.0000000000
      4082        36  POPC      C312            7.2211511531      -25.4556546275        2.5240867949  MEMB      30              0.0000000000
      4083        36  POPC      H12X            6.5136967596      -25.7143883190        3.3407179472  MEMB      30              0.0000000000
      4084        36  POPC      H12Y            7.2049684559      -26.3410922570        1.8532224769  MEMB      30              0.0000000000
      4085        36  POPC      C313            6.5492358609      -24.1951234474        1.7846840270  MEMB      30              0.0000000000
      4086        36  POPC      H13X            6.3532014291      -23.4246579369        2.5607477384  MEMB      30              0.0000000000
      4087        36  POPC      H13Y            5.5666095159      -24.5981270695        1.4585636262  MEMB      30              0.0000000000
      4088        36  POPC      C314            7.3686954353      -23.6369923093        0.6422620902  MEMB      30              0.0000000000
      4089        36  POPC      H14X            7.6311695334      -24.4223747859       -0.0984161784  MEMB      30              0.0000000000
      4090        36  POPC      H14Y            8.3032067236      -23.2369776813        1.0905883984  MEMB      30              0.0000000000
      4091        36  POPC      C315            6.7136920518      -22.5541790125       -0.2061836157  MEMB      30              0.0000000000
      4092        36  POPC      H15X            5.8060831016      -23.0890504553       -0.5590007400  MEMB      30              0.0000000000
      4093        36  POPC      H15Y            7.3097351053      -22.3431010321       -1.1196931000  MEMB      30              0.0000000000
      4094        36  POPC      C316            6.4022936719      -21.1877799440        0.4530488828  MEMB      30              0.0000000000
      4095        36  POPC      H16X            6.3804728421      -20.4898534800       -0.4110937741  MEMB      30              0.0000000000
      4096        36  POPC      H16Y            7.1798263180      -20.9341494757        1.2050031165  MEMB      30              0.0000000000
      4097        36  POPC      H16Z            5.3908222329      -21.1766043208        0.9125279186  MEMB      30              0.0000000000
      4098        37  POPS      N               1.8018607747       26.1066622889       21.4788999363  MEMB      31              0.0000000000
      4099        37  POPS      HN1             0.7645216310       26.1482151193       21.4172485708  MEMB      31              0.0000000000
      4100        37  POPS      HN2             2.1467491067       25.7037743875       22.3735133941  MEMB      31              0.0000000000
      4101        37  POPS      HN3             2.0813263150       27.1068481357       21.5348219547  MEMB      31              0.0000000000
      4102        37  POPS      C12             2.4203130670       25.3790217073       20.3392858317  MEMB      31              0.0000000000
      4103        37  POPS      H12A            1.9434390942       24.4101370013       20.3552125926  MEMB      31              0.0000000000
      4104        37  POPS      C13             3.9302524619       25.1890956240       20.3740464496  MEMB      31              0.0000000000
      4105        37  POPS      O13A            4.5754844696       25.4597524642       21.4145730430  MEMB      31              0.0000000000
      4106        37  POPS      O13B            4.4172799960       24.6463463495       19.3516122817  MEMB      31              0.0000000000
      4107        37  POPS      C11             2.0482787919       26.0889813049       18.9936959112  MEMB      31              0.0000000000
      4108        37  POPS      H11A            2.4901571849       25.4485914903       18.2006225585  MEMB      31              0.0000000000
      4109        37  POPS      H11B            2.4279928319       27.0879189490       18.6899497101  MEMB      31              0.0000000000
      4110        37  POPS      P               0.0923174327       26.7120250256       17.3500196380  MEMB      31              0.0000000000
      4111        37  POPS      O13            -1.4034122627       26.6667916512       17.3601481166  MEMB      31              0.0000000000
      4112        37  POPS      O14             0.7735670099       25.9580921240       16.2430985860  MEMB      31              0.0000000000
      4113        37  POPS      O12             0.6505186740       26.0914532219       18.7646566832  MEMB      31              0.0000000000
      4114        37  POPS      O11             0.6644641755       28.1883126704       17.3299635427  MEMB      31              0.0000000000
      4115        37  POPS      C1             -0.0235601248       29.1066123362       18.1465152001  MEMB      31              0.0000000000
      4116        37  POPS      HA              0.3820489869       29.2030787422       19.1763192597  MEMB      31              0.0000000000
      4117        37  POPS      HB             -1.1206645926       28.9416596637       18.2054530613  MEMB      31              0.0000000000
      4118        37  POPS      C2              0.2547118709       30.5606094116       17.6114135747  MEMB      31              0.0000000000
      4119        37  POPS      HS             -0.3715174084       31.2351808447       18.2335962383  MEMB      31              0.0000000000
      4120        37  POPS      O21            -0.0380565721       30.5686049890       16.2011595360  MEMB      31              0.0000000000
      4121        37  POPS      C21            -1.3027979955       30.4207995341       15.8072856326  MEMB      31              0.0000000000
      4122        37  POPS      O22            -2.2829986574       30.3337307879       16.4982017133  MEMB      31              0.0000000000
      4123        37  POPS      C22            -1.2551369408       30.5980315911       14.3036691750  MEMB      31              0.0000000000
      4124        37  POPS      H2R            -0.5327604894       31.3937529523       14.0220295621  MEMB      31              0.0000000000
      4125        37  POPS      H2S            -2.2704164170       30.9367575018       14.0056870662  MEMB      31              0.0000000000
      4126        37  POPS      C3              1.7444921573       31.0260861175       17.7698790249  MEMB      31              0.0000000000
      4127        37  POPS      HX              1.9293952990       30.9508669505       18.8627989265  MEMB      31              0.0000000000
      4128        37  POPS      HY              2.0664820083       32.0441020834       17.4628163178  MEMB      31              0.0000000000
      4129        37  POPS      O31             2.5159613242       29.9804200006       17.1459327241  MEMB      31              0.0000000000
      4130        37  POPS      C31             3.0224586439       30.0360538592       15.9004848200  MEMB      31              0.0000000000
      4131        37  POPS      O32             2.6132678697       30.7803418940       15.0531147762  MEMB      31              0.0000000000
      4132        37  POPS      C32             4.1902053405       29.0231403152       15.8398443416  MEMB      31              0.0000000000
      4133        37  POPS      H2X             4.1151932915       28.1877193370       16.5683812188  MEMB      31              0.0000000000
      4134        37  POPS      H2Y             4.9953392595       29.6876995294       16.2198987778  MEMB      31              0.0000000000
      4135        37  POPS      C23            -0.9377373452       29.2479387327       13.6298788817  MEMB      31              0.0000000000
      4136        37  POPS      H3R            -1.5470370565       28.4072412028       14.0252298565  MEMB      31              0.0000000000
      4137        37  POPS      H3S             0.1525007030       29.0577080907       13.7274199641  MEMB      31              0.0000000000
      4138        37  POPS      C24            -1.1875812195       29.3261387173       12.1136089800  MEMB      31              0.0000000000
      4139        37  POPS      H4R            -1.9535672949       30.0913265120       11.8644628140  MEMB      31              0.0000000000
      4140        37  POPS      H4S            -1.5674986635       28.3260831738       11.8138214641  MEMB      31              0.0000000000
      4141        37  POPS      C25             0.0695595868       29.7201098341       11.3434661514  MEMB      31              0.0000000000
      4142        37  POPS      H5R             0.9497343603       29.1557327148       11.7190881592  MEMB      31              0.0000000000
      4143        37  POPS      H5S             0.3441226770       30.7728127275       11.5687495066  MEMB      31              0.0000000000
      4144        37  POPS      C26            -0.0167308535       29.2956664882        9.8921902748  MEMB      31              0.0000000000
      4145        37  POPS      H6R            -0.9029038136       29.7795585079        9.4286530037  MEMB      31              0.0000000000
      4146        37  POPS      H6S            -0.2312332962       28.2101112535        9.7927957797  MEMB      31              0.0000000000
      4147        37  POPS      C27             1.2307109979       29.3971901633        9.0987148237  MEMB      31              0.0000000000
      4148        37  POPS      H7R             1.6624443222       28.4080859649        9.3625334062  MEMB      31              0.0000000000
      4149        37  POPS      H7S             1.9969498578       30.1225077729        9.4467289507  MEMB      31              0.0000000000
      4150        37  POPS      C28             1.0048504702       29.4061562150        7.5768557114  MEMB      31              0.0000000000
      4151        37  POPS      H8R             0.1613269382       28.7321477680        7.3151276924  MEMB      31              0.0000000000
      4152        37  POPS      H8S             1.9109767262       28.9219191926        7.1540426289  MEMB      31              0.0000000000
      4153        37  POPS      C29             0.7123039233       30.9008657178        7.0713768289  MEMB      31              0.0000000000
      4154        37  POPS      H91             1.3137706494       31.6702739504        7.5775867647  MEMB      31              0.0000000000
      4155        37  POPS      C210           -0.1016899049       31.3787392987        6.1611633305  MEMB      31              0.0000000000
      4156        37  POPS      H101           -0.0610334709       32.4347425772        5.8558684989  MEMB      31              0.0000000000
      4157        37  POPS      C211           -1.0036227296       30.5810784475        5.2632073599  MEMB      31              0.0000000000
      4158        37  POPS      H11R           -1.9711689139       31.1089075280        5.1233076403  MEMB      31              0.0000000000
      4159        37  POPS      H11S           -1.2215240547       29.6407882811        5.8133834459  MEMB      31              0.0000000000
      4160        37  POPS      C212           -0.4090174327       30.2717861727        3.9146723665  MEMB      31              0.0000000000
      4161        37  POPS      H12R            0.2573852843       29.3839898982        3.9599065203  MEMB      31              0.0000000000
      4162        37  POPS      H12S            0.0190710090       31.2005978043        3.4806554694  MEMB      31              0.0000000000
      4163        37  POPS      C213           -1.6108342910       29.9324799463        3.0699504308  MEMB      31              0.0000000000
      4164        37  POPS      H13R           -2.3549237818       30.7201970352        2.8246877238  MEMB      31              0.0000000000
      4165        37  POPS      H13S           -2.1914121948       29.0918608401        3.5065392831  MEMB      31              0.0000000000
      4166        37  POPS      C214           -1.1057197990       29.3183363819        1.7286650683  MEMB      31              0.0000000000
      4167        37  POPS      H14R           -0.0675572497       28.9228365661        1.7177338533  MEMB      31              0.0000000000
      4168        37  POPS      H14S           -1.1121057266       30.0761483430        0.9162612762  MEMB      31              0.0000000000
      4169        37  POPS      C215           -1.9844400011       28.1697584138        1.1431043284  MEMB      31              0.0000000000
      4170        37  POPS      H15R           -1.4680942511       27.9113274888        0.1939369753  MEMB      31              0.0000000000
      4171        37  POPS      H15S           -3.0207694003       28.4511589363        0.8582264038  MEMB      31              0.0000000000
      4172        37  POPS      C216           -1.9155968068       26.8606160764        2.0050177888  MEMB      31              0.0000000000
      4173        37  POPS      H16R           -2.3587234559       26.0503158406        1.3874640056  MEMB      31              0.0000000000
      4174        37  POPS      H16S           -2.5526603822       26.8825689334        2.9149565370  MEMB      31              0.0000000000
      4175        37  POPS      C217           -0.4728093650       26.4289641685        2.3583265564  MEMB      31              0.0000000000
      4176        37  POPS      H17R           -0.5443007469       25.4416431919        2.8627146010  MEMB      31              0.0000000000
      4177        37  POPS      H17S           -0.0107216028       27.1352760734        3.0807671976  MEMB      31              0.0000000000
      4178        37  POPS      C218            0.5858556066       26.2544541965        1.2430358433  MEMB      31              0.0000000000
      4179        37  POPS      H18R            0.8758244453       27.2156339869        0.7672488300  MEMB      31              0.0000000000
      4180        37  POPS      H18S            0.2579500028       25.4777896024        0.5194397445  MEMB      31              0.0000000000
      4181        37  POPS      H18T            1.4551781505       25.7049146049        1.6632796569  MEMB      31              0.0000000000
      4182        37  POPS      C33             4.5718324336       28.5727229965       14.4035570540  MEMB      31              0.0000000000
      4183        37  POPS      H3X             5.6130254504       28.1861184786       14.4313879556  MEMB      31              0.0000000000
      4184        37  POPS      H3Y             4.5390897981       29.3669135038       13.6273417474  MEMB      31              0.0000000000
      4185        37  POPS      C34             3.8146859264       27.3389817907       13.8509691785  MEMB      31              0.0000000000
      4186        37  POPS      H4X             2.7268919266       27.3390753076       14.0768572370  MEMB      31              0.0000000000
      4187        37  POPS      H4Y             4.0940201908       26.4179191323       14.4058896959  MEMB      31              0.0000000000
      4188        37  POPS      C35             4.2120293224       26.9519720630       12.3202562595  MEMB      31              0.0000000000
      4189        37  POPS      H5X             5.3054177987       26.7786526487       12.4139738801  MEMB      31              0.0000000000
      4190        37  POPS      H5Y             3.9892346642       27.8142832696       11.6561006075  MEMB      31              0.0000000000
      4191        37  POPS      C36             3.5097124333       25.6960873890       11.7981182970  MEMB      31              0.0000000000
      4192        37  POPS      H6X             2.4087827304       25.8177794189       11.8845234681  MEMB      31              0.0000000000
      4193        37  POPS      H6Y             3.8203625633       24.8065606266       12.3868114409  MEMB      31              0.0000000000
      4194        37  POPS      C37             3.8630706355       25.2344003147       10.4496536943  MEMB      31              0.0000000000
      4195        37  POPS      H7X             3.4781021620       24.2040221979       10.2933159463  MEMB      31              0.0000000000
      4196        37  POPS      H7Y             4.9584494898       25.1000261270       10.3215528491  MEMB      31              0.0000000000
      4197        37  POPS      C38             3.3675148051       26.1179782437        9.2813289991  MEMB      31              0.0000000000
      4198        37  POPS      H8X             3.7091510797       27.1418333908        9.5446283791  MEMB      31              0.0000000000
      4199        37  POPS      H8Y             2.2613062667       26.2061151599        9.2278921621  MEMB      31              0.0000000000
      4200        37  POPS      C39             3.9363060907       25.5265545110        7.9458591774  MEMB      31              0.0000000000
      4201        37  POPS      H9X             3.5721497986       24.4956135198        7.7486995565  MEMB      31              0.0000000000
      4202        37  POPS      H9Y             5.0439286198       25.5555270872        7.8642854352  MEMB      31              0.0000000000
      4203        37  POPS      C310            3.6177457601       26.4350689922        6.7132151210  MEMB      31              0.0000000000
      4204        37  POPS      H10X            3.9804834703       27.4476384036        6.9915050072  MEMB      31              0.0000000000
      4205        37  POPS      H10Y            2.5159483940       26.5320866532        6.6085662607  MEMB      31              0.0000000000
      4206        37  POPS      C311            4.2325338814       25.8998020230        5.4544306941  MEMB      31              0.0000000000
      4207        37  POPS      H11X            5.1173602466       25.2451651764        5.6056062968  MEMB      31              0.0000000000
      4208        37  POPS      H11Y            4.6497733519       26.7315652962        4.8474692858  MEMB      31              0.0000000000
      4209        37  POPS      C312            3.2276011272       25.2589681094        4.5311250961  MEMB      31              0.0000000000
      4210        37  POPS      H12X            2.5914211113       26.0739389374        4.1244091439  MEMB      31              0.0000000000
      4211        37  POPS      H12Y            2.5794692020       24.5146823128        5.0413068785  MEMB      31              0.0000000000
      4212        37  POPS      C313            4.0271452409       24.6007280974        3.3735010344  MEMB      31              0.0000000000
      4213        37  POPS      H13X            3.1809279793       24.0991112402        2.8571500523  MEMB      31              0.0000000000
      4214        37  POPS      H13Y            4.7015025308       23.8313212573        3.8066024050  MEMB      31              0.0000000000
      4215        37  POPS      C314            4.7784365089       25.5415316838        2.4103554860  MEMB      31              0.0000000000
      4216        37  POPS      H14X            5.6326129766       26.0872067942        2.8652635788  MEMB      31              0.0000000000
      4217        37  POPS      H14Y            4.0458623808       26.2335486878        1.9426281537  MEMB      31              0.0000000000
      4218        37  POPS      C315            5.3561094166       24.8619680643        1.1520496738  MEMB      31              0.0000000000
      4219        37  POPS      H15X            6.2816357162       24.3212829636        1.4442500800  MEMB      31              0.0000000000
      4220        37  POPS      H15Y            5.6297440437       25.6676273231        0.4376551936  MEMB      31              0.0000000000
      4221        37  POPS      C316            4.3104307392       23.9387945532        0.4945514538  MEMB      31              0.0000000000
      4222        37  POPS      H16X            4.2457550833       22.9686564350        1.0321101693  MEMB      31              0.0000000000
      4223        37  POPS      H16Y            4.6169614771       23.7318990357       -0.5530923100  MEMB      31              0.0000000000
      4224        37  POPS      H16Z            3.3083081313       24.3626129503        0.2699409199  MEMB      31              0.0000000000
      4225        38  POPC      N              17.1282633554       17.8331643005       20.3893668739  MEMB      32              0.0000000000
      4226        38  POPC      C12            18.4363295481       18.0461295329       19.7008907514  MEMB      32              0.0000000000
      4227        38  POPC      H12A           18.8717267342       17.0740161009       19.5224959280  MEMB      32              0.0000000000
      4228        38  POPC      H12B           19.1595762641       18.5335226109       20.3378853899  MEMB      32              0.0000000000
      4229        38  POPC      C13            16.0823199014       17.5797156748       19.3826169999  MEMB      32              0.0000000000
      4230        38  POPC      H13A           15.2565806191       17.1343263538       19.9175776176  MEMB      32              0.0000000000
      4231        38  POPC      H13B           15.8225067974       18.4414910381       18.7857582437  MEMB      32              0.0000000000
      4232        38  POPC      H13C           16.4632367378       16.8225727759       18.7132613409  MEMB      32              0.0000000000
      4233        38  POPC      C14            17.1850965265       16.6860233368       21.4211096373  MEMB      32              0.0000000000
      4234        38  POPC      H14A           17.4842031146       15.8127429535       20.8604703181  MEMB      32              0.0000000000
      4235        38  POPC      H14B           17.9134483592       16.8998877023       22.1893321397  MEMB      32              0.0000000000
      4236        38  POPC      H14C           16.2202061486       16.4825169677       21.8615319055  MEMB      32              0.0000000000
      4237        38  POPC      C15            16.7954144671       19.1151979617       21.1067607083  MEMB      32              0.0000000000
      4238        38  POPC      H15A           15.8915025382       18.8665925697       21.6429871388  MEMB      32              0.0000000000
      4239        38  POPC      H15B           16.5511572494       19.9015088456       20.4078661571  MEMB      32              0.0000000000
      4240        38  POPC      H15C           17.5908656091       19.5059288758       21.7240019816  MEMB      32              0.0000000000
      4241        38  POPC      C11            18.4143010992       18.9784145302       18.5036017223  MEMB      32              0.0000000000
      4242        38  POPC      H11A           17.8022443052       18.4875577372       17.7169841734  MEMB      32              0.0000000000
      4243        38  POPC      H11B           19.4714677946       19.0201665044       18.1645201335  MEMB      32              0.0000000000
      4244        38  POPC      P              17.5984552541       21.2295735419       17.7091851297  MEMB      32              0.0000000000
      4245        38  POPC      O13            17.5403830870       22.6522673437       18.2531029426  MEMB      32              0.0000000000
      4246        38  POPC      O14            16.2634051766       20.7486972418       17.1394606348  MEMB      32              0.0000000000
      4247        38  POPC      O12            17.9997181740       20.3016349203       18.8398394205  MEMB      32              0.0000000000
      4248        38  POPC      O11            18.6561598087       21.0228371108       16.5540651823  MEMB      32              0.0000000000
      4249        38  POPC      C1             19.8760912403       21.7524380078       16.7094823289  MEMB      32              0.0000000000
      4250        38  POPC      HA             20.4281596479       21.4148477725       17.6125737440  MEMB      32              0.0000000000
      4251        38  POPC      HB             19.6884799287       22.8473622420       16.7257291566  MEMB      32              0.0000000000
      4252        38  POPC      C2             20.7437433872       21.5546560576       15.4321249856  MEMB      32              0.0000000000
      4253        38  POPC      HS             21.6354043528       22.2039433344       15.5651195823  MEMB      32              0.0000000000
      4254        38  POPC      O21            19.8979477951       21.9748317662       14.3254821524  MEMB      32              0.0000000000
      4255        38  POPC      C21            20.5355883373       22.4214252791       13.2356257154  MEMB      32              0.0000000000
      4256        38  POPC      O22            21.7304591182       22.5026272223       13.0710966960  MEMB      32              0.0000000000
      4257        38  POPC      C22            19.4560200765       22.6461486885       12.1387429418  MEMB      32              0.0000000000
      4258        38  POPC      H2R            18.5202418833       23.1198107030       12.5051912495  MEMB      32              0.0000000000
      4259        38  POPC      H2S            19.1065150301       21.6492397190       11.7947377086  MEMB      32              0.0000000000
      4260        38  POPC      C3             21.2467676180       20.1474921135       15.1243206170  MEMB      32              0.0000000000
      4261        38  POPC      HX             21.8690749373       19.7372835091       15.9482041517  MEMB      32              0.0000000000
      4262        38  POPC      HY             21.8658632380       20.2166467000       14.2043971846  MEMB      32              0.0000000000
      4263        38  POPC      O31            20.2174893099       19.1332664259       14.8477025694  MEMB      32              0.0000000000
      4264        38  POPC      C31            20.6709052393       17.9378825521       14.5013844534  MEMB      32              0.0000000000
      4265        38  POPC      O32            21.8057395153       17.5636209218       14.5391954375  MEMB      32              0.0000000000
      4266        38  POPC      C32            19.4649956451       17.2033386763       14.0461914290  MEMB      32              0.0000000000
      4267        38  POPC      H2X            19.1497959148       16.6994762198       14.9848565794  MEMB      32              0.0000000000
      4268        38  POPC      H2Y            19.7727227846       16.4898034568       13.2521560466  MEMB      32              0.0000000000
      4269        38  POPC      C23            20.0772601928       23.3841036294       10.9195901348  MEMB      32              0.0000000000
      4270        38  POPC      H3R            21.1124111086       23.0949155183       10.6382467537  MEMB      32              0.0000000000
      4271        38  POPC      H3S            20.0886332561       24.4538221786       11.2194125135  MEMB      32              0.0000000000
      4272        38  POPC      C24            19.1886268326       23.3950603545        9.6708931945  MEMB      32              0.0000000000
      4273        38  POPC      H4R            19.4107746575       24.3274476333        9.1090883006  MEMB      32              0.0000000000
      4274        38  POPC      H4S            18.1147612044       23.4099346869        9.9553440816  MEMB      32              0.0000000000
      4275        38  POPC      C25            19.3235354741       22.1896661648        8.7247818100  MEMB      32              0.0000000000
      4276        38  POPC      H5R            18.5350784916       22.3042532763        7.9504910842  MEMB      32              0.0000000000
      4277        38  POPC      H5S            19.3334682270       21.1436240715        9.0989720291  MEMB      32              0.0000000000
      4278        38  POPC      C26            20.6755301623       22.2809180242        7.9734550604  MEMB      32              0.0000000000
      4279        38  POPC      H6R            21.4928457590       22.0267698068        8.6817804570  MEMB      32              0.0000000000
      4280        38  POPC      H6S            20.7847234862       23.2913751040        7.5247070124  MEMB      32              0.0000000000
      4281        38  POPC      C27            20.6476758376       21.2683060029        6.8080829493  MEMB      32              0.0000000000
      4282        38  POPC      H7R            21.0994744821       21.8169342515        5.9541466476  MEMB      32              0.0000000000
      4283        38  POPC      H7S            19.5878133390       21.0619976405        6.5464546716  MEMB      32              0.0000000000
      4284        38  POPC      C28            21.5413589082       20.0133100295        7.0079335084  MEMB      32              0.0000000000
      4285        38  POPC      H8R            22.5199155719       20.2867236074        7.4573692059  MEMB      32              0.0000000000
      4286        38  POPC      H8S            21.7807172131       19.5727817072        6.0164878528  MEMB      32              0.0000000000
      4287        38  POPC      C29            20.8690064283       19.0353483418        7.9928496547  MEMB      32              0.0000000000
      4288        38  POPC      H91            21.0877519470       19.2187590291        9.0551635283  MEMB      32              0.0000000000
      4289        38  POPC      C210           20.0950520876       18.0199852207        7.6708570292  MEMB      32              0.0000000000
      4290        38  POPC      H101           19.6100915660       17.5154902150        8.5195608120  MEMB      32              0.0000000000
      4291        38  POPC      C211           19.6929981115       17.5830125129        6.2705666818  MEMB      32              0.0000000000
      4292        38  POPC      H11R           20.5711074304       17.0462682672        5.8520568341  MEMB      32              0.0000000000
      4293        38  POPC      H11S           19.3345430250       18.4054079077        5.6152069006  MEMB      32              0.0000000000
      4294        38  POPC      C212           18.5781534351       16.4646094061        6.4013377627  MEMB      32              0.0000000000
      4295        38  POPC      H12R           18.7983465288       15.6562636264        7.1310039679  MEMB      32              0.0000000000
      4296        38  POPC      H12S           18.6624042989       16.0222237929        5.3857009292  MEMB      32              0.0000000000
      4297        38  POPC      C213           17.1715538640       16.9051037169        6.5713296355  MEMB      32              0.0000000000
      4298        38  POPC      H13R           17.1209302885       17.9066410442        6.0931233573  MEMB      32              0.0000000000
      4299        38  POPC      H13S           17.1350937739       17.1198541350        7.6607671940  MEMB      32              0.0000000000
      4300        38  POPC      C214           16.2169623811       15.7470664232        6.2010089452  MEMB      32              0.0000000000
      4301        38  POPC      H14R           15.5146824800       15.4193295875        6.9970699786  MEMB      32              0.0000000000
      4302        38  POPC      H14S           16.7857201483       14.8063883005        6.0398879949  MEMB      32              0.0000000000
      4303        38  POPC      C215           15.4400895189       15.8881166186        4.8495998599  MEMB      32              0.0000000000
      4304        38  POPC      H15R           14.6357300020       16.6505718385        4.9269857657  MEMB      32              0.0000000000
      4305        38  POPC      H15S           14.9778461083       14.8790834921        4.8996385993  MEMB      32              0.0000000000
      4306        38  POPC      C216           16.2975268063       16.0262144300        3.5558274866  MEMB      32              0.0000000000
      4307        38  POPC      H16R           17.0460151473       15.2091972246        3.6368775678  MEMB      32              0.0000000000
      4308        38  POPC      H16S           16.7749342732       17.0293081968        3.5701738008  MEMB      32              0.0000000000
      4309        38  POPC      C217           15.5872151056       15.9990929289        2.1768922982  MEMB      32              0.0000000000
      4310        38  POPC      H17R           14.6521511998       16.5982274137        2.1450470692  MEMB      32              0.0000000000
      4311        38  POPC      H17S           15.3982203426       14.9302905359        1.9396940047  MEMB      32              0.0000000000
      4312        38  POPC      C218           16.3781018515       16.6358712392        1.0273901216  MEMB      32              0.0000000000
      4313        38  POPC      H18R           15.8959441124       16.7022027118        0.0286688075  MEMB      32              0.0000000000
      4314        38  POPC      H18S           17.3724557624       16.1743795417        0.8468185405  MEMB      32              0.0000000000
      4315        38  POPC      H18T           16.5963662473       17.6835438747        1.3258266779  MEMB      32              0.0000000000
      4316        38  POPC      C33            18.1863626657       17.9222472537       13.6157539956  MEMB      32              0.0000000000
      4317        38  POPC      H3X            17.9546443980       18.8288461791       14.2146745484  MEMB      32              0.0000000000
      4318        38  POPC      H3Y            17.3506265954       17.1924531851       13.6729098708  MEMB      32              0.0000000000
      4319        38  POPC      C34            18.2521030087       18.3432085856       12.1416093635  MEMB      32              0.0000000000
      4320        38  POPC      H4X            18.3896976483       17.5307395404       11.3964366277  MEMB      32              0.0000000000
      4321        38  POPC      H4Y            19.1689176141       18.9676434821       12.0795364952  MEMB      32              0.0000000000
      4322        38  POPC      C35            17.0347373918       19.1467781528       11.7390764528  MEMB      32              0.0000000000
      4323        38  POPC      H5X            17.1713629003       20.1364985162       12.2249862594  MEMB      32              0.0000000000
      4324        38  POPC      H5Y            16.2618922496       18.6945576809       12.3967452043  MEMB      32              0.0000000000
      4325        38  POPC      C36            16.8214835157       19.1785149706       10.2423856298  MEMB      32              0.0000000000
      4326        38  POPC      H6X            16.2843961692       18.2708328908        9.8931415083  MEMB      32              0.0000000000
      4327        38  POPC      H6Y            17.7800616365       19.1243066068        9.6833585779  MEMB      32              0.0000000000
      4328        38  POPC      C37            15.9377973942       20.3650199252        9.7242997844  MEMB      32              0.0000000000
      4329        38  POPC      H7X            16.2588883637       21.3972622117        9.9806152286  MEMB      32              0.0000000000
      4330        38  POPC      H7Y            14.8834263716       20.2149266926       10.0406779363  MEMB      32              0.0000000000
      4331        38  POPC      C38            16.0653422211       20.3621763921        8.1576357221  MEMB      32              0.0000000000
      4332        38  POPC      H8X            15.4393899658       19.4878593594        7.8782171086  MEMB      32              0.0000000000
      4333        38  POPC      H8Y            17.0982186929       20.0187751494        7.9350081240  MEMB      32              0.0000000000
      4334        38  POPC      C39            15.5888345630       21.5738928483        7.3871231688  MEMB      32              0.0000000000
      4335        38  POPC      H9X            16.3347859423       22.3693418870        7.5995807382  MEMB      32              0.0000000000
      4336        38  POPC      H9Y            14.6095917195       21.8369275980        7.8412336426  MEMB      32              0.0000000000
      4337        38  POPC      C310           15.4838078420       21.3522645007        5.8523830358  MEMB      32              0.0000000000
      4338        38  POPC      H10X           15.4818060894       22.3606702238        5.3860835613  MEMB      32              0.0000000000
      4339        38  POPC      H10Y           14.5199827879       20.8506055193        5.6206489453  MEMB      32              0.0000000000
      4340        38  POPC      C311           16.8213768573       20.8134740821        5.2477947289  MEMB      32              0.0000000000
      4341        38  POPC      H11X           16.6729427094       19.7742828393        4.8839677734  MEMB      32              0.0000000000
      4342        38  POPC      H11Y           17.5487563279       20.8508459461        6.0867478660  MEMB      32              0.0000000000
      4343        38  POPC      C312           17.3906892321       21.5585167165        4.0025566554  MEMB      32              0.0000000000
      4344        38  POPC      H12X           17.6049347511       22.5909249011        4.3526317696  MEMB      32              0.0000000000
      4345        38  POPC      H12Y           16.7077632924       21.5641291383        3.1262566452  MEMB      32              0.0000000000
      4346        38  POPC      C313           18.8428030467       21.2188461161        3.6228029826  MEMB      32              0.0000000000
      4347        38  POPC      H13X           19.0324167592       20.1287763167        3.5222261916  MEMB      32              0.0000000000
      4348        38  POPC      H13Y           19.3992348515       21.5039079268        4.5411951735  MEMB      32              0.0000000000
      4349        38  POPC      C314           19.4776016415       21.9917944523        2.4458125762  MEMB      32              0.0000000000
      4350        38  POPC      H14X           19.1081945883       21.6559442653        1.4533087266  MEMB      32              0.0000000000
      4351        38  POPC      H14Y           20.5448861945       21.6985757589        2.3496493105  MEMB      32              0.0000000000
      4352        38  POPC      C315           19.4300614544       23.5559856263        2.5885534095  MEMB      32              0.0000000000
      4353        38  POPC      H15X           20.2623734751       23.9575090914        1.9718225184  MEMB      32              0.0000000000
      4354        38  POPC      H15Y           19.7059520470       23.8229636484        3.6311107943  MEMB      32              0.0000000000
      4355        38  POPC      C316           18.1023195991       24.2964662920        2.3283681505  MEMB      32              0.0000000000
      4356        38  POPC      H16X           18.3795268382       25.3585643146        2.1568293850  MEMB      32              0.0000000000
      4357        38  POPC      H16Y           17.3671483505       24.1568070557        3.1495497429  MEMB      32              0.0000000000
      4358        38  POPC      H16Z           17.6285741890       23.8805932291        1.4135256383  MEMB      32              0.0000000000
      4359        39  POPC      N             -17.0139842915       18.2014960368       18.0742769994  MEMB      33              0.0000000000
      4360        39  POPC      C12           -17.3221724022       16.9491084316       18.7008028989  MEMB      33              0.0000000000
      4361        39  POPC      H12A          -16.3822321991       16.4361549071       18.8414837264  MEMB      33              0.0000000000
      4362        39  POPC      H12B          -17.8322487049       16.2875317623       18.0163042008  MEMB      33              0.0000000000
      4363        39  POPC      C13           -18.1316317473       18.8436044948       17.3752067891  MEMB      33              0.0000000000
      4364        39  POPC      H13A          -18.7258138705       18.2443329906       16.7012474586  MEMB      33              0.0000000000
      4365        39  POPC      H13B          -18.9045254294       19.0102685414       18.1109094789  MEMB      33              0.0000000000
      4366        39  POPC      H13C          -17.9170632596       19.7987300268       16.9190318719  MEMB      33              0.0000000000
      4367        39  POPC      C14           -16.4312111079       19.2449070446       18.9718864408  MEMB      33              0.0000000000
      4368        39  POPC      H14A          -15.4498242042       18.9609697609       19.3221138943  MEMB      33              0.0000000000
      4369        39  POPC      H14B          -16.2871670817       20.1713646512       18.4358567853  MEMB      33              0.0000000000
      4370        39  POPC      H14C          -16.9302415675       19.3753908212       19.9207502867  MEMB      33              0.0000000000
      4371        39  POPC      C15           -15.9083440972       17.9175357518       17.0108603749  MEMB      33              0.0000000000
      4372        39  POPC      H15A          -15.8094092596       18.7148825194       16.2891608411  MEMB      33              0.0000000000
      4373        39  POPC      H15B          -16.2929236059       17.0368910212       16.5179469131  MEMB      33              0.0000000000
      4374        39  POPC      H15C          -14.9732843699       17.7424118425       17.5221281543  MEMB      33              0.0000000000
      4375        39  POPC      C11           -18.0581195522       17.1016103815       20.1064388648  MEMB      33              0.0000000000
      4376        39  POPC      H11A          -17.3478189443       17.5516081444       20.8325905031  MEMB      33              0.0000000000
      4377        39  POPC      H11B          -18.1998298204       16.0306152057       20.3656850234  MEMB      33              0.0000000000
      4378        39  POPC      P             -20.5665059117       17.0956831645       19.8055815160  MEMB      33              0.0000000000
      4379        39  POPC      O13           -21.6438659650       18.0970998815       19.6706857703  MEMB      33              0.0000000000
      4380        39  POPC      O14           -20.6713180957       15.9731752615       20.7515879966  MEMB      33              0.0000000000
      4381        39  POPC      O12           -19.2587181864       17.9263927772       20.0729730705  MEMB      33              0.0000000000
      4382        39  POPC      O11           -20.3066789394       16.4392082740       18.4596993054  MEMB      33              0.0000000000
      4383        39  POPC      C1            -21.3180132511       16.5622718759       17.3584267657  MEMB      33              0.0000000000
      4384        39  POPC      HA            -21.1342864154       17.4814255566       16.7620024460  MEMB      33              0.0000000000
      4385        39  POPC      HB            -22.3814981382       16.5307288802       17.6783107266  MEMB      33              0.0000000000
      4386        39  POPC      C2            -21.1768445996       15.3966327371       16.4123634434  MEMB      33              0.0000000000
      4387        39  POPC      HS            -21.3986061218       14.4802375655       17.0000390804  MEMB      33              0.0000000000
      4388        39  POPC      O21           -19.7803601900       15.4510607859       16.0384888325  MEMB      33              0.0000000000
      4389        39  POPC      C21           -18.8795621791       14.5417712485       16.2623506444  MEMB      33              0.0000000000
      4390        39  POPC      O22           -19.0260316867       13.5284470137       16.9583840996  MEMB      33              0.0000000000
      4391        39  POPC      C22           -17.6263409544       14.8510642380       15.3641284665  MEMB      33              0.0000000000
      4392        39  POPC      H2R           -16.7569616420       14.5264209991       15.9749535158  MEMB      33              0.0000000000
      4393        39  POPC      H2S           -17.4769131619       15.9508650019       15.3148268743  MEMB      33              0.0000000000
      4394        39  POPC      C3            -22.1230228163       15.4959700657       15.2127141936  MEMB      33              0.0000000000
      4395        39  POPC      HX            -23.1470899056       15.4428724783       15.6402516873  MEMB      33              0.0000000000
      4396        39  POPC      HY            -21.9958083717       14.6893143730       14.4594253965  MEMB      33              0.0000000000
      4397        39  POPC      O31           -21.8307436417       16.6946964497       14.5196223949  MEMB      33              0.0000000000
      4398        39  POPC      C31           -22.0887501074       16.8212201317       13.2122376493  MEMB      33              0.0000000000
      4399        39  POPC      O32           -22.3417841639       15.8715321241       12.4824201621  MEMB      33              0.0000000000
      4400        39  POPC      C32           -21.8252893662       18.2502911940       12.6712897651  MEMB      33              0.0000000000
      4401        39  POPC      H2X           -22.1085576811       19.0677222326       13.3683454201  MEMB      33              0.0000000000
      4402        39  POPC      H2Y           -22.5056841189       18.4059549522       11.8069094636  MEMB      33              0.0000000000
      4403        39  POPC      C23           -17.7631113819       14.2286679747       14.0169873469  MEMB      33              0.0000000000
      4404        39  POPC      H3R           -18.0920433129       13.1727676322       14.1228152373  MEMB      33              0.0000000000
      4405        39  POPC      H3S           -16.7608428842       14.3277026012       13.5479768096  MEMB      33              0.0000000000
      4406        39  POPC      C24           -18.8173156751       14.8084260146       13.0468542784  MEMB      33              0.0000000000
      4407        39  POPC      H4R           -18.6039040062       15.8658371357       12.7810382987  MEMB      33              0.0000000000
      4408        39  POPC      H4S           -19.8557362184       14.6445042655       13.4062052372  MEMB      33              0.0000000000
      4409        39  POPC      C25           -18.7068507059       14.0622347359       11.7264622999  MEMB      33              0.0000000000
      4410        39  POPC      H5R           -19.0119035740       13.0269319440       11.9899238582  MEMB      33              0.0000000000
      4411        39  POPC      H5S           -17.6063907394       14.1502695242       11.6017274165  MEMB      33              0.0000000000
      4412        39  POPC      C26           -19.1792175325       14.6488692476       10.4881810376  MEMB      33              0.0000000000
      4413        39  POPC      H6R           -18.9321528789       15.7299230743       10.5560248379  MEMB      33              0.0000000000
      4414        39  POPC      H6S           -20.2871883906       14.7025044787       10.5501871016  MEMB      33              0.0000000000
      4415        39  POPC      C27           -18.5765426228       14.0710700268        9.2017090339  MEMB      33              0.0000000000
      4416        39  POPC      H7R           -18.6078551752       12.9609755870        9.2338203394  MEMB      33              0.0000000000
      4417        39  POPC      H7S           -17.4829039580       14.2595510613        9.2541516110  MEMB      33              0.0000000000
      4418        39  POPC      C28           -19.1823011632       14.5485168634        7.8472996397  MEMB      33              0.0000000000
      4419        39  POPC      H8R           -18.5642670384       14.0021034456        7.1031308169  MEMB      33              0.0000000000
      4420        39  POPC      H8S           -18.9983905155       15.6259093814        7.6479937474  MEMB      33              0.0000000000
      4421        39  POPC      C29           -20.6335887774       14.1534640327        7.7082942381  MEMB      33              0.0000000000
      4422        39  POPC      H91           -20.8476242950       13.0854195331        7.8614926884  MEMB      33              0.0000000000
      4423        39  POPC      C210          -21.7625655103       14.8588059928        7.6075646893  MEMB      33              0.0000000000
      4424        39  POPC      H101          -22.7637415155       14.4031378710        7.6111509291  MEMB      33              0.0000000000
      4425        39  POPC      C211          -21.8131910806       16.3649129190        7.5629647931  MEMB      33              0.0000000000
      4426        39  POPC      H11R          -21.3191848063       16.7500349642        8.4805484071  MEMB      33              0.0000000000
      4427        39  POPC      H11S          -22.8860056410       16.6502303787        7.6075046149  MEMB      33              0.0000000000
      4428        39  POPC      C212          -21.1740035643       17.0428813820        6.2858231711  MEMB      33              0.0000000000
      4429        39  POPC      H12R          -21.7701110608       16.6762863934        5.4229299409  MEMB      33              0.0000000000
      4430        39  POPC      H12S          -20.1049791970       16.7757148508        6.1439434274  MEMB      33              0.0000000000
      4431        39  POPC      C213          -21.2630029165       18.5705195569        6.4232978434  MEMB      33              0.0000000000
      4432        39  POPC      H13R          -21.0644514181       19.0346679342        7.4129766730  MEMB      33              0.0000000000
      4433        39  POPC      H13S          -22.3195207161       18.7796251574        6.1505971788  MEMB      33              0.0000000000
      4434        39  POPC      C214          -20.4051969828       19.3319111430        5.4054088174  MEMB      33              0.0000000000
      4435        39  POPC      H14R          -20.5323110843       18.7940927911        4.4416070535  MEMB      33              0.0000000000
      4436        39  POPC      H14S          -19.3267487114       19.3309432299        5.6723727365  MEMB      33              0.0000000000
      4437        39  POPC      C215          -20.8353287690       20.7088892320        5.1609054828  MEMB      33              0.0000000000
      4438        39  POPC      H15R          -20.9132363513       21.3017238303        6.0972805924  MEMB      33              0.0000000000
      4439        39  POPC      H15S          -21.8425610472       20.7043333915        4.6920941023  MEMB      33              0.0000000000
      4440        39  POPC      C216          -19.9719961565       21.4654514678        4.1508678829  MEMB      33              0.0000000000
      4441        39  POPC      H16R          -19.0993265191       21.6547347732        4.8118829788  MEMB      33              0.0000000000
      4442        39  POPC      H16S          -20.2440166948       22.5154810833        3.9105268924  MEMB      33              0.0000000000
      4443        39  POPC      C217          -19.5771168324       20.8157159171        2.8060887986  MEMB      33              0.0000000000
      4444        39  POPC      H17R          -19.0477108349       19.8672781567        3.0395756238  MEMB      33              0.0000000000
      4445        39  POPC      H17S          -18.7773337914       21.3363962493        2.2372653356  MEMB      33              0.0000000000
      4446        39  POPC      C218          -20.7141805564       20.4483335839        1.9245088601  MEMB      33              0.0000000000
      4447        39  POPC      H18R          -21.4577917370       19.8592712880        2.5027543311  MEMB      33              0.0000000000
      4448        39  POPC      H18S          -20.3229778252       19.7722782305        1.1344247077  MEMB      33              0.0000000000
      4449        39  POPC      H18T          -21.2224817607       21.3235230046        1.4662564401  MEMB      33              0.0000000000
      4450        39  POPC      C33           -20.3339281501       18.2397405605       12.2592595488  MEMB      33              0.0000000000
      4451        39  POPC      H3X           -20.2103491704       17.5894524935       11.3669734537  MEMB      33              0.0000000000
      4452        39  POPC      H3Y           -19.6164590396       17.8865043012       13.0304815535  MEMB      33              0.0000000000
      4453        39  POPC      C34           -19.8735831623       19.6024083804       11.6787521448  MEMB      33              0.0000000000
      4454        39  POPC      H4X           -19.9660770100       20.2934596706       12.5437458773  MEMB      33              0.0000000000
      4455        39  POPC      H4Y           -20.5926329971       19.7237230079       10.8405572941  MEMB      33              0.0000000000
      4456        39  POPC      C35           -18.4277469201       19.7127921191       11.1228170215  MEMB      33              0.0000000000
      4457        39  POPC      H5X           -17.8555046265       19.8566137694       12.0641856825  MEMB      33              0.0000000000
      4458        39  POPC      H5Y           -18.4502742866       20.6430357481       10.5158079840  MEMB      33              0.0000000000
      4459        39  POPC      C36           -17.8933694675       18.4427000728       10.2894776255  MEMB      33              0.0000000000
      4460        39  POPC      H6X           -18.5897759566       18.0442873829        9.5209689191  MEMB      33              0.0000000000
      4461        39  POPC      H6Y           -17.7914124536       17.6210962053       11.0303509197  MEMB      33              0.0000000000
      4462        39  POPC      C37           -16.5635669524       18.8551398319        9.5669752406  MEMB      33              0.0000000000
      4463        39  POPC      H7X           -15.9388623458       19.1672506539       10.4310649914  MEMB      33              0.0000000000
      4464        39  POPC      H7Y           -16.5510854705       19.6693961973        8.8112290889  MEMB      33              0.0000000000
      4465        39  POPC      C38           -15.9027020082       17.6295469483        8.9274247586  MEMB      33              0.0000000000
      4466        39  POPC      H8X           -16.2388706091       16.8165724300        9.6059404765  MEMB      33              0.0000000000
      4467        39  POPC      H8Y           -14.7965854649       17.7174252630        8.9831426801  MEMB      33              0.0000000000
      4468        39  POPC      C39           -16.4185443885       17.3948264704        7.5174432657  MEMB      33              0.0000000000
      4469        39  POPC      H9X           -16.1725918016       18.2093010417        6.8029793300  MEMB      33              0.0000000000
      4470        39  POPC      H9Y           -17.5218247624       17.2792333344        7.4563559608  MEMB      33              0.0000000000
      4471        39  POPC      C310          -15.8991161420       16.1018031901        6.8774436662  MEMB      33              0.0000000000
      4472        39  POPC      H10X          -16.3576461520       15.3005122408        7.4955084708  MEMB      33              0.0000000000
      4473        39  POPC      H10Y          -14.8053278591       16.0390808041        7.0618726590  MEMB      33              0.0000000000
      4474        39  POPC      C311          -16.0329437973       15.8451228122        5.3677028950  MEMB      33              0.0000000000
      4475        39  POPC      H11X          -15.7718496528       14.7950325463        5.1157874883  MEMB      33              0.0000000000
      4476        39  POPC      H11Y          -15.3416536864       16.5492935187        4.8572299109  MEMB      33              0.0000000000
      4477        39  POPC      C312          -17.4170442846       16.0266941174        4.9145062512  MEMB      33              0.0000000000
      4478        39  POPC      H12X          -17.7460846213       17.0806813640        5.0376501091  MEMB      33              0.0000000000
      4479        39  POPC      H12Y          -18.1305397264       15.3549939430        5.4380170983  MEMB      33              0.0000000000
      4480        39  POPC      C313          -17.5079804349       15.6117546871        3.3283618889  MEMB      33              0.0000000000
      4481        39  POPC      H13X          -17.3246224370       14.5163877606        3.2988320562  MEMB      33              0.0000000000
      4482        39  POPC      H13Y          -16.6266804985       16.0885143902        2.8484329759  MEMB      33              0.0000000000
      4483        39  POPC      C314          -18.7268892397       16.0003389282        2.4586556237  MEMB      33              0.0000000000
      4484        39  POPC      H14X          -18.3280527183       15.8935397346        1.4272261348  MEMB      33              0.0000000000
      4485        39  POPC      H14Y          -19.0020899416       17.0675438961        2.5988654049  MEMB      33              0.0000000000
      4486        39  POPC      C315          -20.0252800730       15.0860475796        2.5263983635  MEMB      33              0.0000000000
      4487        39  POPC      H15X          -20.2877407584       14.9558817236        3.5980762614  MEMB      33              0.0000000000
      4488        39  POPC      H15Y          -19.7501982316       14.1258792631        2.0398519083  MEMB      33              0.0000000000
      4489        39  POPC      C316          -21.2744394406       15.7080992573        1.8077625550  MEMB      33              0.0000000000
      4490        39  POPC      H16X          -21.4171626463       16.8002275406        1.9533890745  MEMB      33              0.0000000000
      4491        39  POPC      H16Y          -22.1774859048       15.1296782024        2.0980342981  MEMB      33              0.0000000000
      4492        39  POPC      H16Z          -21.0081303429       15.6097503369        0.7336452570  MEMB      33              0.0000000000
      4493        40  POPC      N             -10.4862620519       24.0949060198       19.0452743116  MEMB      34              0.0000000000
      4494        40  POPC      C12           -10.8180654058       23.0176666203       18.0534813851  MEMB      34              0.0000000000
      4495        40  POPC      H12A           -9.9379749459       22.4064375743       17.9184270501  MEMB      34              0.0000000000
      4496        40  POPC      H12B          -11.0635429742       23.4174956643       17.0807134256  MEMB      34              0.0000000000
      4497        40  POPC      C13           -11.5860216110       25.1258002802       19.2562249940  MEMB      34              0.0000000000
      4498        40  POPC      H13A          -12.5572753146       24.7039602339       19.4686329869  MEMB      34              0.0000000000
      4499        40  POPC      H13B          -11.4488707014       25.8473138190       20.0480632792  MEMB      34              0.0000000000
      4500        40  POPC      H13C          -11.7800754046       25.7243731881       18.3784701517  MEMB      34              0.0000000000
      4501        40  POPC      C14           -10.2855220721       23.4873742522       20.4393047241  MEMB      34              0.0000000000
      4502        40  POPC      H14A          -11.1824733062       22.9650166779       20.7376687527  MEMB      34              0.0000000000
      4503        40  POPC      H14B           -9.5654711427       22.6833193289       20.4770162623  MEMB      34              0.0000000000
      4504        40  POPC      H14C          -10.0190044521       24.2710229479       21.1330361541  MEMB      34              0.0000000000
      4505        40  POPC      C15            -9.2738167262       24.6229181508       18.4659834836  MEMB      34              0.0000000000
      4506        40  POPC      H15A           -8.9747661991       25.3975512943       19.1565717683  MEMB      34              0.0000000000
      4507        40  POPC      H15B           -9.3940454975       25.1793768658       17.5482151124  MEMB      34              0.0000000000
      4508        40  POPC      H15C           -8.6258095572       23.7592018772       18.4440537234  MEMB      34              0.0000000000
      4509        40  POPC      C11           -12.0663988485       22.1324395403       18.2278591350  MEMB      34              0.0000000000
      4510        40  POPC      H11A          -11.8754154373       21.5236650561       19.1373865000  MEMB      34              0.0000000000
      4511        40  POPC      H11B          -12.3406206361       21.5464395800       17.3246827602  MEMB      34              0.0000000000
      4512        40  POPC      P             -14.4936788976       22.5454148363       19.1692648981  MEMB      34              0.0000000000
      4513        40  POPC      O13           -14.7320751129       23.2058874480       20.4620688808  MEMB      34              0.0000000000
      4514        40  POPC      O14           -14.6359752944       21.0610438941       19.1462537397  MEMB      34              0.0000000000
      4515        40  POPC      O12           -13.1885167066       23.0242367552       18.5525194230  MEMB      34              0.0000000000
      4516        40  POPC      O11           -15.5453826360       23.1239656794       18.1817650303  MEMB      34              0.0000000000
      4517        40  POPC      C1            -16.8917345508       22.9694596784       18.7678211405  MEMB      34              0.0000000000
      4518        40  POPC      HA            -17.1258684400       23.6294314030       19.6303403490  MEMB      34              0.0000000000
      4519        40  POPC      HB            -17.1235074999       21.9217046950       19.0555917176  MEMB      34              0.0000000000
      4520        40  POPC      C2            -18.0200018409       23.2373350205       17.7443927090  MEMB      34              0.0000000000
      4521        40  POPC      HS            -18.9322144960       22.7017854942       18.0840627232  MEMB      34              0.0000000000
      4522        40  POPC      O21           -17.7236803712       22.7749972126       16.4496784234  MEMB      34              0.0000000000
      4523        40  POPC      C21           -17.4828571005       21.4568794156       16.3526494110  MEMB      34              0.0000000000
      4524        40  POPC      O22           -17.7046178568       20.6732298387       17.2338437960  MEMB      34              0.0000000000
      4525        40  POPC      C22           -17.1190882902       21.1309747290       14.9260059390  MEMB      34              0.0000000000
      4526        40  POPC      H2R           -18.0105011592       21.0076083904       14.2744809882  MEMB      34              0.0000000000
      4527        40  POPC      H2S           -16.6027599931       20.1593737418       14.7720018503  MEMB      34              0.0000000000
      4528        40  POPC      C3            -18.3546514913       24.7103666967       17.7416466570  MEMB      34              0.0000000000
      4529        40  POPC      HX            -18.6320924721       24.9721185234       18.7851187456  MEMB      34              0.0000000000
      4530        40  POPC      HY            -19.1210691688       24.9377069049       16.9701278974  MEMB      34              0.0000000000
      4531        40  POPC      O31           -17.1107923150       25.4748803789       17.5349915110  MEMB      34              0.0000000000
      4532        40  POPC      C31           -16.8244003245       25.7337655184       16.3327924371  MEMB      34              0.0000000000
      4533        40  POPC      O32           -17.5410472862       25.4462194212       15.3085091742  MEMB      34              0.0000000000
      4534        40  POPC      C32           -15.5245273572       26.4793704379       16.3362386325  MEMB      34              0.0000000000
      4535        40  POPC      H2X           -14.8116390825       25.7995716101       16.8500333246  MEMB      34              0.0000000000
      4536        40  POPC      H2Y           -15.5555996722       27.2691792653       17.1169803453  MEMB      34              0.0000000000
      4537        40  POPC      C23           -16.3338596555       22.3250387992       14.1915420467  MEMB      34              0.0000000000
      4538        40  POPC      H3R           -15.7385294879       22.6588717769       15.0681596125  MEMB      34              0.0000000000
      4539        40  POPC      H3S           -17.0340815075       23.1310406156       13.8843427433  MEMB      34              0.0000000000
      4540        40  POPC      C24           -15.3649573089       21.9187605820       13.0484810706  MEMB      34              0.0000000000
      4541        40  POPC      H4R           -14.4280665184       21.4354324395       13.3991245718  MEMB      34              0.0000000000
      4542        40  POPC      H4S           -15.1396000912       22.9228135948       12.6296581287  MEMB      34              0.0000000000
      4543        40  POPC      C25           -16.0558430873       21.1629163615       11.9365334311  MEMB      34              0.0000000000
      4544        40  POPC      H5R           -17.1053566494       21.4890517798       11.7738123796  MEMB      34              0.0000000000
      4545        40  POPC      H5S           -16.2482475577       20.1032420807       12.2092818736  MEMB      34              0.0000000000
      4546        40  POPC      C26           -15.3542479734       21.2650995432       10.5868988800  MEMB      34              0.0000000000
      4547        40  POPC      H6R           -14.3399694018       20.8246283097       10.6943472871  MEMB      34              0.0000000000
      4548        40  POPC      H6S           -15.1018578876       22.3074892379       10.2969959481  MEMB      34              0.0000000000
      4549        40  POPC      C27           -16.1724931844       20.6258271248        9.5098401644  MEMB      34              0.0000000000
      4550        40  POPC      H7R           -17.0641579740       21.2827555255        9.4220900433  MEMB      34              0.0000000000
      4551        40  POPC      H7S           -16.3416079739       19.5840357695        9.8568155398  MEMB      34              0.0000000000
      4552        40  POPC      C28           -15.4944829986       20.6166217670        8.1284699786  MEMB      34              0.0000000000
      4553        40  POPC      H8R           -15.0480143250       21.6198620848        7.9596634894  MEMB      34              0.0000000000
      4554        40  POPC      H8S           -16.2484043287       20.7008818506        7.3167900921  MEMB      34              0.0000000000
      4555        40  POPC      C29           -14.5247232868       19.5592173868        7.9189847831  MEMB      34              0.0000000000
      4556        40  POPC      H91           -13.7143088919       19.5430355249        8.6626016416  MEMB      34              0.0000000000
      4557        40  POPC      C210          -14.6332859259       18.5630643027        7.0195867594  MEMB      34              0.0000000000
      4558        40  POPC      H101          -13.7834877497       17.8651320647        6.9925018749  MEMB      34              0.0000000000
      4559        40  POPC      C211          -15.8105414945       18.3714075020        6.1297270462  MEMB      34              0.0000000000
      4560        40  POPC      H11R          -16.7832210686       18.7255239831        6.5332326547  MEMB      34              0.0000000000
      4561        40  POPC      H11S          -16.0067094691       17.2844698429        6.0097000454  MEMB      34              0.0000000000
      4562        40  POPC      C212          -15.7894961418       18.9020878840        4.6745777739  MEMB      34              0.0000000000
      4563        40  POPC      H12R          -15.3540723297       19.9232426356        4.7189719646  MEMB      34              0.0000000000
      4564        40  POPC      H12S          -16.8408608067       18.8386360858        4.3211276849  MEMB      34              0.0000000000
      4565        40  POPC      C213          -14.9617376011       17.9782460511        3.7746921742  MEMB      34              0.0000000000
      4566        40  POPC      H13R          -15.6839616159       17.2630567803        3.3261200231  MEMB      34              0.0000000000
      4567        40  POPC      H13S          -14.1671717796       17.4690564986        4.3609615978  MEMB      34              0.0000000000
      4568        40  POPC      C214          -14.3174532969       18.6327666962        2.5787687777  MEMB      34              0.0000000000
      4569        40  POPC      H14R          -13.6166094244       17.9513199804        2.0507818003  MEMB      34              0.0000000000
      4570        40  POPC      H14S          -13.6375254130       19.4294870252        2.9492496583  MEMB      34              0.0000000000
      4571        40  POPC      C215          -15.2514240254       19.2030886884        1.4892017280  MEMB      34              0.0000000000
      4572        40  POPC      H15R          -16.0495319250       19.8789782827        1.8640594617  MEMB      34              0.0000000000
      4573        40  POPC      H15S          -15.8837004397       18.3992214632        1.0552162491  MEMB      34              0.0000000000
      4574        40  POPC      C216          -14.4828862126       19.9606788404        0.3565191726  MEMB      34              0.0000000000
      4575        40  POPC      H16R          -13.9617285876       19.2590668726       -0.3293799355  MEMB      34              0.0000000000
      4576        40  POPC      H16S          -13.6744104575       20.4777601747        0.9162635875  MEMB      34              0.0000000000
      4577        40  POPC      C217          -15.4270572233       20.9308674475       -0.3886508232  MEMB      34              0.0000000000
      4578        40  POPC      H17R          -15.8699098460       21.6061246377        0.3743881428  MEMB      34              0.0000000000
      4579        40  POPC      H17S          -16.2881506413       20.4077564384       -0.8568337861  MEMB      34              0.0000000000
      4580        40  POPC      C218          -14.7501157911       21.6046228454       -1.5573976528  MEMB      34              0.0000000000
      4581        40  POPC      H18R          -15.4749574269       22.0820379481       -2.2509401286  MEMB      34              0.0000000000
      4582        40  POPC      H18S          -14.1082192162       20.7937444921       -1.9633115812  MEMB      34              0.0000000000
      4583        40  POPC      H18T          -14.0791417331       22.4136260257       -1.1973596810  MEMB      34              0.0000000000
      4584        40  POPC      C33           -15.0736785676       26.9980258734       14.9721706414  MEMB      34              0.0000000000
      4585        40  POPC      H3X           -14.3813401040       27.8633163533       15.0512966548  MEMB      34              0.0000000000
      4586        40  POPC      H3Y           -15.9086604676       27.5707952423       14.5149382703  MEMB      34              0.0000000000
      4587        40  POPC      C34           -14.4723889212       25.9005232347       14.0836388790  MEMB      34              0.0000000000
      4588        40  POPC      H4X           -15.2645149085       25.1542279766       13.8602541493  MEMB      34              0.0000000000
      4589        40  POPC      H4Y           -13.6509461079       25.3548717050       14.5953188393  MEMB      34              0.0000000000
      4590        40  POPC      C35           -13.9458602498       26.2960835066       12.6338950809  MEMB      34              0.0000000000
      4591        40  POPC      H5X           -13.5382564881       25.4342906626       12.0633749644  MEMB      34              0.0000000000
      4592        40  POPC      H5Y           -13.0271393308       26.9074010605       12.7625977741  MEMB      34              0.0000000000
      4593        40  POPC      C36           -14.9275483568       27.0671595615       11.7618062852  MEMB      34              0.0000000000
      4594        40  POPC      H6X           -15.0928861090       28.0357726445       12.2802397727  MEMB      34              0.0000000000
      4595        40  POPC      H6Y           -15.8900462831       26.5124976494       11.7454187986  MEMB      34              0.0000000000
      4596        40  POPC      C37           -14.4152423089       27.4542059436       10.3830382278  MEMB      34              0.0000000000
      4597        40  POPC      H7X           -13.3111894651       27.4394033058       10.5062020702  MEMB      34              0.0000000000
      4598        40  POPC      H7Y           -14.7105173986       28.4993270676       10.1488238815  MEMB      34              0.0000000000
      4599        40  POPC      C38           -14.7162635824       26.3820239276        9.3366884670  MEMB      34              0.0000000000
      4600        40  POPC      H8X           -15.8017057650       26.1775686349        9.2169627965  MEMB      34              0.0000000000
      4601        40  POPC      H8Y           -14.2333903692       25.4145193230        9.5918150449  MEMB      34              0.0000000000
      4602        40  POPC      C39           -14.1415485971       26.8087651264        7.9090215716  MEMB      34              0.0000000000
      4603        40  POPC      H9X           -13.3280838976       27.5513548412        8.0544754065  MEMB      34              0.0000000000
      4604        40  POPC      H9Y           -14.9748612956       27.3356339476        7.3968491515  MEMB      34              0.0000000000
      4605        40  POPC      C310          -13.5756749961       25.7351828863        6.9221831491  MEMB      34              0.0000000000
      4606        40  POPC      H10X          -12.9637771697       24.9746292377        7.4527112427  MEMB      34              0.0000000000
      4607        40  POPC      H10Y          -12.7910735485       26.2321011720        6.3124346591  MEMB      34              0.0000000000
      4608        40  POPC      C311          -14.5684934474       24.9299358182        6.0756462941  MEMB      34              0.0000000000
      4609        40  POPC      H11X          -14.8862515566       25.6112222618        5.2576000512  MEMB      34              0.0000000000
      4610        40  POPC      H11Y          -15.4478794998       24.7183086488        6.7207935862  MEMB      34              0.0000000000
      4611        40  POPC      C312          -14.0534353679       23.6395110198        5.3636534173  MEMB      34              0.0000000000
      4612        40  POPC      H12X          -13.6498599531       23.0444695718        6.2106316542  MEMB      34              0.0000000000
      4613        40  POPC      H12Y          -13.1270778947       23.7973126607        4.7709628092  MEMB      34              0.0000000000
      4614        40  POPC      C313          -15.0756489296       22.8825918178        4.5682972838  MEMB      34              0.0000000000
      4615        40  POPC      H13X          -16.0165709326       22.7581737460        5.1457981120  MEMB      34              0.0000000000
      4616        40  POPC      H13Y          -14.7651839037       21.8423163860        4.3321627290  MEMB      34              0.0000000000
      4617        40  POPC      C314          -15.3520821459       23.4998684087        3.1941943767  MEMB      34              0.0000000000
      4618        40  POPC      H14X          -15.7346278463       24.5371863858        3.3035165760  MEMB      34              0.0000000000
      4619        40  POPC      H14Y          -16.0242972920       22.7918921477        2.6638951544  MEMB      34              0.0000000000
      4620        40  POPC      C315          -14.0090379277       23.7205935442        2.3956813405  MEMB      34              0.0000000000
      4621        40  POPC      H15X          -13.6514415086       22.6804226333        2.2391896312  MEMB      34              0.0000000000
      4622        40  POPC      H15Y          -13.2533634978       24.2389871720        3.0238105273  MEMB      34              0.0000000000
      4623        40  POPC      C316          -14.1960258223       24.4468587421        1.0691005450  MEMB      34              0.0000000000
      4624        40  POPC      H16X          -14.7624577812       23.8766635176        0.3020589388  MEMB      34              0.0000000000
      4625        40  POPC      H16Y          -13.2531244145       24.7349503666        0.5569866591  MEMB      34              0.0000000000
      4626        40  POPC      H16Z          -14.7550988889       25.3851727785        1.2723870751  MEMB      34              0.0000000000
      4627        41  POPC      N             -22.4984428675       12.3212684361       18.5266340982  MEMB      35              0.0000000000
      4628        41  POPC      C12           -22.0808023626       10.9489439814       19.1183564757  MEMB      35              0.0000000000
      4629        41  POPC      H12A          -21.7243975560       11.1716499018       20.1132321771  MEMB      35              0.0000000000
      4630        41  POPC      H12B          -21.2692201947       10.5695709020       18.5151897074  MEMB      35              0.0000000000
      4631        41  POPC      C13           -23.8520845156       12.8280445851       18.9584171538  MEMB      35              0.0000000000
      4632        41  POPC      H13A          -23.9232202071       13.1365482863       19.9909699091  MEMB      35              0.0000000000
      4633        41  POPC      H13B          -24.1483294084       13.5889502225       18.2515496571  MEMB      35              0.0000000000
      4634        41  POPC      H13C          -24.5665268117       12.0628611885       18.6929620411  MEMB      35              0.0000000000
      4635        41  POPC      C14           -21.3334253312       13.2851843236       18.8471615752  MEMB      35              0.0000000000
      4636        41  POPC      H14A          -21.4893727840       14.1676784967       18.2444307185  MEMB      35              0.0000000000
      4637        41  POPC      H14B          -21.4310744905       13.5264211296       19.8953358108  MEMB      35              0.0000000000
      4638        41  POPC      H14C          -20.3608092672       12.8571054902       18.6543738628  MEMB      35              0.0000000000
      4639        41  POPC      C15           -22.5380931595       12.2344151255       17.0382394663  MEMB      35              0.0000000000
      4640        41  POPC      H15A          -21.6864766041       11.6962562990       16.6489654516  MEMB      35              0.0000000000
      4641        41  POPC      H15B          -22.6438939273       13.1872595217       16.5409528494  MEMB      35              0.0000000000
      4642        41  POPC      H15C          -23.3796688811       11.6368520975       16.7203263662  MEMB      35              0.0000000000
      4643        41  POPC      C11           -23.1793749954        9.7276399937       19.0287014990  MEMB      35              0.0000000000
      4644        41  POPC      H11A          -22.7421695943        8.8350597639       19.5251618925  MEMB      35              0.0000000000
      4645        41  POPC      H11B          -23.2962952804        9.4747486765       17.9532032292  MEMB      35              0.0000000000
      4646        41  POPC      P             -25.6308039946        8.9909919843       19.5760576465  MEMB      35              0.0000000000
      4647        41  POPC      O13           -26.8595338775        9.6435704428       20.1313941499  MEMB      35              0.0000000000
      4648        41  POPC      O14           -25.1887366795        7.6727319381       20.0788111232  MEMB      35              0.0000000000
      4649        41  POPC      O12           -24.4141088685       10.0128282827       19.6920463627  MEMB      35              0.0000000000
      4650        41  POPC      O11           -25.7482032997        8.9326803162       18.0041804494  MEMB      35              0.0000000000
      4651        41  POPC      C1            -26.5981974559        9.7977501761       17.2971639898  MEMB      35              0.0000000000
      4652        41  POPC      HA            -26.3267396369       10.8684307329       17.4166411779  MEMB      35              0.0000000000
      4653        41  POPC      HB            -27.5842202957        9.6832249730       17.7961270315  MEMB      35              0.0000000000
      4654        41  POPC      C2            -26.7567102725        9.3691966083       15.8148029587  MEMB      35              0.0000000000
      4655        41  POPC      HS            -27.6754380494        8.7697010818       15.6391173688  MEMB      35              0.0000000000
      4656        41  POPC      O21           -25.6272892766        8.6743242033       15.2948221577  MEMB      35              0.0000000000
      4657        41  POPC      C21           -25.6094462280        7.4383189780       15.5563293567  MEMB      35              0.0000000000
      4658        41  POPC      O22           -26.3658460634        6.7016351319       16.2130563978  MEMB      35              0.0000000000
      4659        41  POPC      C22           -24.3502686937        6.9302351818       14.7905954004  MEMB      35              0.0000000000
      4660        41  POPC      H2R           -24.1645059929        5.8443111596       14.9340587339  MEMB      35              0.0000000000
      4661        41  POPC      H2S           -23.5188582924        7.4518930215       15.3111246407  MEMB      35              0.0000000000
      4662        41  POPC      C3            -26.8825647685       10.6235362967       14.8898066293  MEMB      35              0.0000000000
      4663        41  POPC      HX            -26.0476802076       11.3320866393       15.0775439964  MEMB      35              0.0000000000
      4664        41  POPC      HY            -27.7502668791       11.2224256947       15.2401569650  MEMB      35              0.0000000000
      4665        41  POPC      O31           -26.9487913170       10.3336099251       13.5259725614  MEMB      35              0.0000000000
      4666        41  POPC      C31           -27.9156762951       10.6388011327       12.7142192309  MEMB      35              0.0000000000
      4667        41  POPC      O32           -28.8673434803       11.3939193241       13.0292923626  MEMB      35              0.0000000000
      4668        41  POPC      C32           -27.6402230175        9.8948603235       11.4151768146  MEMB      35              0.0000000000
      4669        41  POPC      H2X           -28.5564561968        9.7921193770       10.7952721719  MEMB      35              0.0000000000
      4670        41  POPC      H2Y           -27.2966041233        8.8428721863       11.5129929244  MEMB      35              0.0000000000
      4671        41  POPC      C23           -24.3758360405        7.2695204549       13.2489051143  MEMB      35              0.0000000000
      4672        41  POPC      H3R           -24.4672388516        8.3642532189       13.0829929096  MEMB      35              0.0000000000
      4673        41  POPC      H3S           -25.3555175786        6.9146156157       12.8634343652  MEMB      35              0.0000000000
      4674        41  POPC      C24           -23.4013179079        6.5159759218       12.3021080687  MEMB      35              0.0000000000
      4675        41  POPC      H4R           -23.2765886905        5.4446825351       12.5687425940  MEMB      35              0.0000000000
      4676        41  POPC      H4S           -22.4405260470        7.0496851621       12.4644485277  MEMB      35              0.0000000000
      4677        41  POPC      C25           -23.7118381185        6.5298575617       10.7874792580  MEMB      35              0.0000000000
      4678        41  POPC      H5R           -24.7009190812        6.0253256317       10.7489110660  MEMB      35              0.0000000000
      4679        41  POPC      H5S           -22.9434643614        5.9014357083       10.2884707979  MEMB      35              0.0000000000
      4680        41  POPC      C26           -23.6347660876        7.8661542149       10.1159821694  MEMB      35              0.0000000000
      4681        41  POPC      H6R           -24.0576153994        8.6160272643       10.8182705348  MEMB      35              0.0000000000
      4682        41  POPC      H6S           -24.0549522543        7.9149789002        9.0886645713  MEMB      35              0.0000000000
      4683        41  POPC      C27           -22.1324304413        8.3638013589        9.9171823974  MEMB      35              0.0000000000
      4684        41  POPC      H7R           -21.6439849926        7.5926636332        9.2838665746  MEMB      35              0.0000000000
      4685        41  POPC      H7S           -21.6424026788        8.4776218613       10.9077573294  MEMB      35              0.0000000000
      4686        41  POPC      C28           -21.9391574329        9.7552620362        9.1195365162  MEMB      35              0.0000000000
      4687        41  POPC      H8R           -22.1949390687       10.5228896233        9.8808811281  MEMB      35              0.0000000000
      4688        41  POPC      H8S           -22.6611757009        9.7787785227        8.2754652855  MEMB      35              0.0000000000
      4689        41  POPC      C29           -20.5913241556       10.1272842547        8.7218478499  MEMB      35              0.0000000000
      4690        41  POPC      H91           -19.9569194220       10.2396175565        9.6134252879  MEMB      35              0.0000000000
      4691        41  POPC      C210          -20.1565395147       10.4070465914        7.4830304826  MEMB      35              0.0000000000
      4692        41  POPC      H101          -19.1758857188       10.9052914622        7.4746235924  MEMB      35              0.0000000000
      4693        41  POPC      C211          -20.8893328526       10.4239820906        6.2088629038  MEMB      35              0.0000000000
      4694        41  POPC      H11R          -20.8275326152       11.4893293703        5.8997726820  MEMB      35              0.0000000000
      4695        41  POPC      H11S          -21.9513496817       10.1020257832        6.2616360536  MEMB      35              0.0000000000
      4696        41  POPC      C212          -20.3427858127        9.5505795875        5.0612302160  MEMB      35              0.0000000000
      4697        41  POPC      H12R          -19.3405455215        9.8811969883        4.7140585658  MEMB      35              0.0000000000
      4698        41  POPC      H12S          -20.9484386263        9.8249754535        4.1711663238  MEMB      35              0.0000000000
      4699        41  POPC      C213          -20.4072965105        8.0020471088        5.3482356645  MEMB      35              0.0000000000
      4700        41  POPC      H13R          -19.6330544705        7.7300141367        6.0971464429  MEMB      35              0.0000000000
      4701        41  POPC      H13S          -20.1751915986        7.5119638030        4.3785615241  MEMB      35              0.0000000000
      4702        41  POPC      C214          -21.7988740024        7.3520972580        5.6599662486  MEMB      35              0.0000000000
      4703        41  POPC      H14R          -22.0644483627        7.5677300921        6.7169866277  MEMB      35              0.0000000000
      4704        41  POPC      H14S          -21.7668627607        6.2483528778        5.5373102042  MEMB      35              0.0000000000
      4705        41  POPC      C215          -22.9314312719        7.9454644201        4.8112055873  MEMB      35              0.0000000000
      4706        41  POPC      H15R          -23.0975411130        9.0436864823        4.8364427546  MEMB      35              0.0000000000
      4707        41  POPC      H15S          -23.8754745463        7.4959041283        5.1867041781  MEMB      35              0.0000000000
      4708        41  POPC      C216          -22.8340231244        7.5438461467        3.3744108356  MEMB      35              0.0000000000
      4709        41  POPC      H16R          -22.9094230136        6.4365369749        3.3243930599  MEMB      35              0.0000000000
      4710        41  POPC      H16S          -21.9029278049        7.7559945728        2.8066285853  MEMB      35              0.0000000000
      4711        41  POPC      C217          -24.0376008693        8.0775900397        2.5436394735  MEMB      35              0.0000000000
      4712        41  POPC      H17R          -24.9055159644        8.2329627646        3.2195857252  MEMB      35              0.0000000000
      4713        41  POPC      H17S          -24.2656496754        7.2870706163        1.7970514904  MEMB      35              0.0000000000
      4714        41  POPC      C218          -23.7196298559        9.2287530013        1.6176125407  MEMB      35              0.0000000000
      4715        41  POPC      H18R          -22.8837198627        8.8419570173        0.9963513159  MEMB      35              0.0000000000
      4716        41  POPC      H18S          -23.4501833535       10.2196768452        2.0416268822  MEMB      35              0.0000000000
      4717        41  POPC      H18T          -24.5234917459        9.2273007021        0.8507181724  MEMB      35              0.0000000000
      4718        41  POPC      C33           -26.7486616486       10.9140137504       10.6946441462  MEMB      35              0.0000000000
      4719        41  POPC      H3X           -25.7781101406       11.1106042175       11.1983342970  MEMB      35              0.0000000000
      4720        41  POPC      H3Y           -27.2393129215       11.9106332229       10.6764299805  MEMB      35              0.0000000000
      4721        41  POPC      C34           -26.2255043733       10.4807530744        9.2876663594  MEMB      35              0.0000000000
      4722        41  POPC      H4X           -27.1659501703       10.4227962936        8.6990039955  MEMB      35              0.0000000000
      4723        41  POPC      H4Y           -25.8461786933        9.4367631932        9.2649057142  MEMB      35              0.0000000000
      4724        41  POPC      C35           -25.2223200088       11.4691473820        8.5786272079  MEMB      35              0.0000000000
      4725        41  POPC      H5X           -24.2302881596       11.4341501290        9.0775950232  MEMB      35              0.0000000000
      4726        41  POPC      H5Y           -25.6974075218       12.4733417295        8.5642558126  MEMB      35              0.0000000000
      4727        41  POPC      C36           -25.0150696063       10.9277249862        7.1627611428  MEMB      35              0.0000000000
      4728        41  POPC      H6X           -25.9387694092       10.7023238168        6.5880482986  MEMB      35              0.0000000000
      4729        41  POPC      H6Y           -24.6201435388        9.9086034222        7.3621241926  MEMB      35              0.0000000000
      4730        41  POPC      C37           -24.2936952455       11.7468429368        6.0985609410  MEMB      35              0.0000000000
      4731        41  POPC      H7X           -23.8532997482       11.0117107065        5.3914872149  MEMB      35              0.0000000000
      4732        41  POPC      H7Y           -23.5321197558       12.4226330899        6.5431178016  MEMB      35              0.0000000000
      4733        41  POPC      C38           -25.2212917801       12.6323257531        5.2501048813  MEMB      35              0.0000000000
      4734        41  POPC      H8X           -25.7315330535       13.3433380874        5.9345289148  MEMB      35              0.0000000000
      4735        41  POPC      H8Y           -26.0704981319       12.1173412311        4.7521481464  MEMB      35              0.0000000000
      4736        41  POPC      C39           -24.4308052750       13.5309846787        4.3459324774  MEMB      35              0.0000000000
      4737        41  POPC      H9X           -23.6129391457       12.8911128684        3.9509891187  MEMB      35              0.0000000000
      4738        41  POPC      H9Y           -23.8904228630       14.2965677608        4.9427498670  MEMB      35              0.0000000000
      4739        41  POPC      C310          -25.2380790500       14.2122099918        3.1964410912  MEMB      35              0.0000000000
      4740        41  POPC      H10X          -24.7327906161       15.1854721656        3.0182118568  MEMB      35              0.0000000000
      4741        41  POPC      H10Y          -26.2410437469       14.4652612765        3.6018394032  MEMB      35              0.0000000000
      4742        41  POPC      C311          -25.3003555597       13.4108845025        1.8796681521  MEMB      35              0.0000000000
      4743        41  POPC      H11X          -24.3107467582       13.0428711244        1.5338906212  MEMB      35              0.0000000000
      4744        41  POPC      H11Y          -25.6314051640       14.1599968341        1.1289627187  MEMB      35              0.0000000000
      4745        41  POPC      C312          -26.2470744282       12.1997985289        2.0167227309  MEMB      35              0.0000000000
      4746        41  POPC      H12X          -27.2161683334       12.4198227582        2.5134789607  MEMB      35              0.0000000000
      4747        41  POPC      H12Y          -25.7414259087       11.3929922056        2.5891760617  MEMB      35              0.0000000000
      4748        41  POPC      C313          -26.6993400010       11.6736276111        0.6196765666  MEMB      35              0.0000000000
      4749        41  POPC      H13X          -25.9088755797       11.2497534816       -0.0359270301  MEMB      35              0.0000000000
      4750        41  POPC      H13Y          -27.1482490785       12.5350048565        0.0803898563  MEMB      35              0.0000000000
      4751        41  POPC      C314          -27.6446348961       10.4777628519        0.6776376013  MEMB      35              0.0000000000
      4752        41  POPC      H14X          -27.1299616164        9.5546954635        1.0202440173  MEMB      35              0.0000000000
      4753        41  POPC      H14Y          -28.0386250261       10.2911495474       -0.3442578825  MEMB      35              0.0000000000
      4754        41  POPC      C315          -28.8754579605       10.7658847892        1.6485155318  MEMB      35              0.0000000000
      4755        41  POPC      H15X          -29.0853973298       11.8543221191        1.5740128285  MEMB      35              0.0000000000
      4756        41  POPC      H15Y          -28.5792137234       10.5724718200        2.7016788262  MEMB      35              0.0000000000
      4757        41  POPC      C316          -30.1395310343        9.9358795239        1.3606246017  MEMB      35              0.0000000000
      4758        41  POPC      H16X          -31.0107822110       10.2538966187        1.9722671783  MEMB      35              0.0000000000
      4759        41  POPC      H16Y          -29.9172676194        8.8835069012        1.6388891298  MEMB      35              0.0000000000
      4760        41  POPC      H16Z          -30.5265616378       10.0947164797        0.3314025291  MEMB      35              0.0000000000
      4761        42  POPC      N              28.4690151326        7.7585530937       20.8726468978  MEMB      36              0.0000000000
      4762        42  POPC      C12            29.4192644345        8.4814265514       19.8690792346  MEMB      36              0.0000000000
      4763        42  POPC      H12A           29.6039460797        7.7080107522       19.1382436766  MEMB      36              0.0000000000
      4764        42  POPC      H12B           30.3219995302        8.6448166700       20.4389678994  MEMB      36              0.0000000000
      4765        42  POPC      C13            27.5555101971        6.7466820989       20.3037283717  MEMB      36              0.0000000000
      4766        42  POPC      H13A           28.0780094510        5.8326898797       20.0628698420  MEMB      36              0.0000000000
      4767        42  POPC      H13B           26.7921018871        6.4721271164       21.0166289613  MEMB      36              0.0000000000
      4768        42  POPC      H13C           26.9994085897        7.1388498409       19.4650654129  MEMB      36              0.0000000000
      4769        42  POPC      C14            29.3975342445        7.1524514446       21.8774498197  MEMB      36              0.0000000000
      4770        42  POPC      H14A           28.8387566417        6.6397208868       22.6463939523  MEMB      36              0.0000000000
      4771        42  POPC      H14B           29.9283447255        6.4664006939       21.2340410510  MEMB      36              0.0000000000
      4772        42  POPC      H14C           30.0150982839        7.9186392285       22.3223888562  MEMB      36              0.0000000000
      4773        42  POPC      C15            27.6459595735        8.6786005672       21.7933983754  MEMB      36              0.0000000000
      4774        42  POPC      H15A           28.2769586178        9.4678033095       22.1747109286  MEMB      36              0.0000000000
      4775        42  POPC      H15B           27.3702923649        8.2302486601       22.7364722176  MEMB      36              0.0000000000
      4776        42  POPC      H15C           26.7939616805        9.0217941898       21.2253158984  MEMB      36              0.0000000000
      4777        42  POPC      C11            28.8451494873        9.6601121660       19.0984201619  MEMB      36              0.0000000000
      4778        42  POPC      H11A           29.5962910114       10.1064155779       18.4121835390  MEMB      36              0.0000000000
      4779        42  POPC      H11B           28.4771446184       10.4907404707       19.7379121428  MEMB      36              0.0000000000
      4780        42  POPC      P              27.7178356182        8.7168197614       16.9830670959  MEMB      36              0.0000000000
      4781        42  POPC      O13            27.3828585293        7.3211778217       16.9647964503  MEMB      36              0.0000000000
      4782        42  POPC      O14            29.0172071245        9.1256968428       16.4477308651  MEMB      36              0.0000000000
      4783        42  POPC      O12            27.6407868920        9.2172376381       18.4695032569  MEMB      36              0.0000000000
      4784        42  POPC      O11            26.5748896730        9.5034115835       16.3201794716  MEMB      36              0.0000000000
      4785        42  POPC      C1             25.4448149120        9.9403770030       17.0338087044  MEMB      36              0.0000000000
      4786        42  POPC      HA             25.6432167991       10.8434031312       17.6498457606  MEMB      36              0.0000000000
      4787        42  POPC      HB             25.0438103413        9.1107528529       17.6544859730  MEMB      36              0.0000000000
      4788        42  POPC      C2             24.4314493347       10.3590395210       15.9756864898  MEMB      36              0.0000000000
      4789        42  POPC      HS             23.4270581835       10.4128188391       16.4475208170  MEMB      36              0.0000000000
      4790        42  POPC      O21            24.2952885077        9.3784655920       14.8631188637  MEMB      36              0.0000000000
      4791        42  POPC      C21            23.9778214518        8.0623554537       15.0575563485  MEMB      36              0.0000000000
      4792        42  POPC      O22            23.7735905885        7.5516305236       16.1751205017  MEMB      36              0.0000000000
      4793        42  POPC      C22            24.0066230068        7.3574131189       13.7666513609  MEMB      36              0.0000000000
      4794        42  POPC      H2R            23.2811322345        7.8389576801       13.0766519239  MEMB      36              0.0000000000
      4795        42  POPC      H2S            23.6804431221        6.3041479842       13.9028875664  MEMB      36              0.0000000000
      4796        42  POPC      C3             24.7884717268       11.7831223829       15.4809078151  MEMB      36              0.0000000000
      4797        42  POPC      HX             25.1974837338       12.5146976342       16.2101733566  MEMB      36              0.0000000000
      4798        42  POPC      HY             23.9036494820       12.2731236714       15.0212237388  MEMB      36              0.0000000000
      4799        42  POPC      O31            25.6519170543       11.5303515362       14.3174297592  MEMB      36              0.0000000000
      4800        42  POPC      C31            26.8247349738       12.1671146660       14.2317030582  MEMB      36              0.0000000000
      4801        42  POPC      O32            27.2240000932       13.0313058243       15.0420463410  MEMB      36              0.0000000000
      4802        42  POPC      C32            27.5152137737       11.8161067852       12.9418681104  MEMB      36              0.0000000000
      4803        42  POPC      H2X            26.7973059248       11.5834800455       12.1265066924  MEMB      36              0.0000000000
      4804        42  POPC      H2Y            28.1992526701       10.9661049035       13.1514119608  MEMB      36              0.0000000000
      4805        42  POPC      C23            25.3723607532        7.4570575380       13.1097080515  MEMB      36              0.0000000000
      4806        42  POPC      H3R            26.1559617389        7.3792809699       13.8934436811  MEMB      36              0.0000000000
      4807        42  POPC      H3S            25.4559180733        8.4607774389       12.6407882753  MEMB      36              0.0000000000
      4808        42  POPC      C24            25.6290306361        6.2708063846       12.0873246541  MEMB      36              0.0000000000
      4809        42  POPC      H4R            24.7492494067        6.3405706199       11.4124627730  MEMB      36              0.0000000000
      4810        42  POPC      H4S            25.5630118396        5.4262709329       12.8061588076  MEMB      36              0.0000000000
      4811        42  POPC      C25            26.8552506987        6.2865484357       11.1944308997  MEMB      36              0.0000000000
      4812        42  POPC      H5R            26.6402378626        6.9181392800       10.3060711007  MEMB      36              0.0000000000
      4813        42  POPC      H5S            27.0784963051        5.2832179996       10.7727548916  MEMB      36              0.0000000000
      4814        42  POPC      C26            28.1805425284        6.8638227163       11.7739622715  MEMB      36              0.0000000000
      4815        42  POPC      H6R            28.4388252265        6.2071247007       12.6320757225  MEMB      36              0.0000000000
      4816        42  POPC      H6S            27.9766007927        7.9230841520       12.0398452922  MEMB      36              0.0000000000
      4817        42  POPC      C27            29.2581967882        6.9202249241       10.6255167797  MEMB      36              0.0000000000
      4818        42  POPC      H7R            30.0837683401        7.4957230532       11.0962126201  MEMB      36              0.0000000000
      4819        42  POPC      H7S            28.7966263931        7.5319973428        9.8211483804  MEMB      36              0.0000000000
      4820        42  POPC      C28            29.6373792200        5.6178861933       10.0274786156  MEMB      36              0.0000000000
      4821        42  POPC      H8R            28.8290469995        5.2036394799        9.3876975653  MEMB      36              0.0000000000
      4822        42  POPC      H8S            29.8002764264        4.8788218063       10.8408476240  MEMB      36              0.0000000000
      4823        42  POPC      C29            30.9592992373        5.7916279348        9.2623657503  MEMB      36              0.0000000000
      4824        42  POPC      H91            31.8555370644        5.4234510134        9.7831377226  MEMB      36              0.0000000000
      4825        42  POPC      C210           31.1412749389        6.4631653218        8.1151027822  MEMB      36              0.0000000000
      4826        42  POPC      H101           32.1126043229        6.3868022412        7.6045264079  MEMB      36              0.0000000000
      4827        42  POPC      C211           30.1262502936        7.1698852234        7.2914989580  MEMB      36              0.0000000000
      4828        42  POPC      H11R           30.0262946401        8.2374023883        7.5825954458  MEMB      36              0.0000000000
      4829        42  POPC      H11S           29.1051642942        6.7865108862        7.5029910107  MEMB      36              0.0000000000
      4830        42  POPC      C212           30.3012097924        7.0407922406        5.7688514752  MEMB      36              0.0000000000
      4831        42  POPC      H12R           30.4434828172        5.9498979592        5.6138385060  MEMB      36              0.0000000000
      4832        42  POPC      H12S           31.2997106120        7.5073628574        5.6287487838  MEMB      36              0.0000000000
      4833        42  POPC      C213           29.2519430387        7.7760834095        4.9509128727  MEMB      36              0.0000000000
      4834        42  POPC      H13R           29.2187844868        8.8243729440        5.3173965471  MEMB      36              0.0000000000
      4835        42  POPC      H13S           28.3257097970        7.1650639041        5.0063028554  MEMB      36              0.0000000000
      4836        42  POPC      C214           29.6276260707        7.8695342180        3.4456484191  MEMB      36              0.0000000000
      4837        42  POPC      H14R           30.4575473937        8.5575397460        3.1769470769  MEMB      36              0.0000000000
      4838        42  POPC      H14S           28.6693928828        8.1266416493        2.9456417731  MEMB      36              0.0000000000
      4839        42  POPC      C215           30.1060294985        6.5231086608        2.6911762417  MEMB      36              0.0000000000
      4840        42  POPC      H15R           29.3417091622        5.7900992949        3.0270831358  MEMB      36              0.0000000000
      4841        42  POPC      H15S           31.1193076343        6.3304689192        3.1040671485  MEMB      36              0.0000000000
      4842        42  POPC      C216           30.0971621395        6.5590234471        1.2075335472  MEMB      36              0.0000000000
      4843        42  POPC      H16R           29.0273673647        6.6928288466        0.9392867705  MEMB      36              0.0000000000
      4844        42  POPC      H16S           30.3522102832        5.5492102384        0.8208173166  MEMB      36              0.0000000000
      4845        42  POPC      C217           30.8953754928        7.7310818335        0.5713473929  MEMB      36              0.0000000000
      4846        42  POPC      H17R           30.4815945078        8.6492022190        1.0405607215  MEMB      36              0.0000000000
      4847        42  POPC      H17S           30.6602588990        7.7408130317       -0.5144458213  MEMB      36              0.0000000000
      4848        42  POPC      C218           32.4458626581        7.7098298193        0.7341347793  MEMB      36              0.0000000000
      4849        42  POPC      H18R           32.7252244093        8.4091049877        1.5510136773  MEMB      36              0.0000000000
      4850        42  POPC      H18S           32.9048075914        8.0603670131       -0.2149794154  MEMB      36              0.0000000000
      4851        42  POPC      H18T           32.7325401530        6.6525467305        0.9193068706  MEMB      36              0.0000000000
      4852        42  POPC      C33            28.4171517233       13.0513216751       12.5663338189  MEMB      36              0.0000000000
      4853        42  POPC      H3X            29.2597590730       13.2171872063       13.2711904087  MEMB      36              0.0000000000
      4854        42  POPC      H3Y            27.9002308057       14.0240438402       12.7109882788  MEMB      36              0.0000000000
      4855        42  POPC      C34            28.9814819091       13.0135246170       11.1653709306  MEMB      36              0.0000000000
      4856        42  POPC      H4X            29.3406442823       11.9720466454       11.0216807197  MEMB      36              0.0000000000
      4857        42  POPC      H4Y            29.7218387968       13.8411644800       11.2000848747  MEMB      36              0.0000000000
      4858        42  POPC      C35            27.9597649802       13.2525402595       10.1074604961  MEMB      36              0.0000000000
      4859        42  POPC      H5X            27.6163627741       14.2937487174       10.2871315053  MEMB      36              0.0000000000
      4860        42  POPC      H5Y            27.1096401262       12.6347494252       10.4679364753  MEMB      36              0.0000000000
      4861        42  POPC      C36            28.5234905927       12.9553584591        8.7846120325  MEMB      36              0.0000000000
      4862        42  POPC      H6X            29.5581451917       13.3586274841        8.7501888718  MEMB      36              0.0000000000
      4863        42  POPC      H6Y            27.9370840804       13.5960072249        8.0917791888  MEMB      36              0.0000000000
      4864        42  POPC      C37            28.4738976838       11.5090437165        8.2444278358  MEMB      36              0.0000000000
      4865        42  POPC      H7X            28.9541195698       10.7301445814        8.8745268864  MEMB      36              0.0000000000
      4866        42  POPC      H7Y            29.0292875601       11.4289896280        7.2855466958  MEMB      36              0.0000000000
      4867        42  POPC      C38            27.0480868109       11.1313842283        7.8420024157  MEMB      36              0.0000000000
      4868        42  POPC      H8X            26.7952705632       11.7161704479        6.9318216029  MEMB      36              0.0000000000
      4869        42  POPC      H8Y            26.4020284542       11.3376254990        8.7219992324  MEMB      36              0.0000000000
      4870        42  POPC      C39            26.7659778555        9.6760255141        7.5824126600  MEMB      36              0.0000000000
      4871        42  POPC      H9X            26.8677986301        9.1532818826        8.5574470694  MEMB      36              0.0000000000
      4872        42  POPC      H9Y            27.5360942812        9.2672460743        6.8938339107  MEMB      36              0.0000000000
      4873        42  POPC      C310           25.3677995416        9.3574947113        7.0364197407  MEMB      36              0.0000000000
      4874        42  POPC      H10X           24.5813335202        9.6681367667        7.7570396683  MEMB      36              0.0000000000
      4875        42  POPC      H10Y           25.4233928495        8.2503588138        7.1104503158  MEMB      36              0.0000000000
      4876        42  POPC      C311           25.0785949091        9.8681064411        5.6038340106  MEMB      36              0.0000000000
      4877        42  POPC      H11X           25.1654227014       10.9751621481        5.5690574032  MEMB      36              0.0000000000
      4878        42  POPC      H11Y           24.0081438108        9.6863250524        5.3684384708  MEMB      36              0.0000000000
      4879        42  POPC      C312           26.0552652895        9.0819129010        4.6018016101  MEMB      36              0.0000000000
      4880        42  POPC      H12X           25.9943489863        7.9749719850        4.6745475501  MEMB      36              0.0000000000
      4881        42  POPC      H12Y           27.0725083199        9.4550781224        4.8473324415  MEMB      36              0.0000000000
      4882        42  POPC      C313           25.8794224870        9.6734948680        3.1709463069  MEMB      36              0.0000000000
      4883        42  POPC      H13X           26.7406885813        9.4427623100        2.5081461932  MEMB      36              0.0000000000
      4884        42  POPC      H13Y           25.8677831363       10.7815850098        3.2504559853  MEMB      36              0.0000000000
      4885        42  POPC      C314           24.7022615775        9.0490280148        2.4094859860  MEMB      36              0.0000000000
      4886        42  POPC      H14X           24.5899018382        9.4392344523        1.3753512898  MEMB      36              0.0000000000
      4887        42  POPC      H14Y           23.8055476135        9.4485944130        2.9296519713  MEMB      36              0.0000000000
      4888        42  POPC      C315           24.6179857439        7.5188953336        2.2434023124  MEMB      36              0.0000000000
      4889        42  POPC      H15X           23.7135612082        7.4138216021        1.6067741324  MEMB      36              0.0000000000
      4890        42  POPC      H15Y           24.4240883275        7.0703029662        3.2411451223  MEMB      36              0.0000000000
      4891        42  POPC      C316           25.8071709218        6.8520783169        1.5825818688  MEMB      36              0.0000000000
      4892        42  POPC      H16X           26.0946638085        7.3719267490        0.6437385993  MEMB      36              0.0000000000
      4893        42  POPC      H16Y           25.5434525525        5.7969646276        1.3556264042  MEMB      36              0.0000000000
      4894        42  POPC      H16Z           26.6397877625        6.8353127347        2.3179647812  MEMB      36              0.0000000000
      4895        43  POPS      N             -29.5719952284       -4.1156460982       20.5968290233  MEMB      37              0.0000000000
      4896        43  POPS      HN1           -30.5335724565       -4.1447390547       20.2017051134  MEMB      37              0.0000000000
      4897        43  POPS      HN2           -29.0744681588       -5.0120754588       20.4222401871  MEMB      37              0.0000000000
      4898        43  POPS      HN3           -29.5387598605       -3.8248696741       21.5947992281  MEMB      37              0.0000000000
      4899        43  POPS      C12           -28.8197832374       -3.1312656897       19.7252701739  MEMB      37              0.0000000000
      4900        43  POPS      H12A          -27.8937674370       -2.9882988945       20.2623504970  MEMB      37              0.0000000000
      4901        43  POPS      C13           -29.5431351870       -1.8593659163       19.3209173792  MEMB      37              0.0000000000
      4902        43  POPS      O13A          -30.6159474740       -1.5837398336       19.9321957324  MEMB      37              0.0000000000
      4903        43  POPS      O13B          -29.0666706729       -1.0902313319       18.4105595841  MEMB      37              0.0000000000
      4904        43  POPS      C11           -28.4993434143       -3.9071280447       18.4899961251  MEMB      37              0.0000000000
      4905        43  POPS      H11A          -27.9613314595       -3.2312455761       17.7913924820  MEMB      37              0.0000000000
      4906        43  POPS      H11B          -29.3394039596       -4.3882135825       17.9448575799  MEMB      37              0.0000000000
      4907        43  POPS      P             -27.4244411194       -6.3914522580       18.5532731448  MEMB      37              0.0000000000
      4908        43  POPS      O13           -28.4996285099       -7.0907323004       19.3150694428  MEMB      37              0.0000000000
      4909        43  POPS      O14           -26.0402428516       -6.8371382905       18.7424780964  MEMB      37              0.0000000000
      4910        43  POPS      O12           -27.4609488978       -4.8291031823       18.8908666487  MEMB      37              0.0000000000
      4911        43  POPS      O11           -27.9185835100       -6.3825163384       17.0225446455  MEMB      37              0.0000000000
      4912        43  POPS      C1            -28.7316268389       -7.3582451924       16.5370312267  MEMB      37              0.0000000000
      4913        43  POPS      HA            -29.6847594368       -7.2672383880       17.1005708391  MEMB      37              0.0000000000
      4914        43  POPS      HB            -28.2304478424       -8.3470380407       16.6107134318  MEMB      37              0.0000000000
      4915        43  POPS      C2            -28.9579171936       -7.2881709477       14.9925468365  MEMB      37              0.0000000000
      4916        43  POPS      HS            -29.4692766602       -8.2467330450       14.7601874176  MEMB      37              0.0000000000
      4917        43  POPS      O21           -27.6638114397       -7.1757446478       14.3904431762  MEMB      37              0.0000000000
      4918        43  POPS      C21           -27.5063158521       -7.3306693723       13.0641135440  MEMB      37              0.0000000000
      4919        43  POPS      O22           -28.3459064417       -7.7699775739       12.3327279188  MEMB      37              0.0000000000
      4920        43  POPS      C22           -26.0567151026       -7.0926289992       12.6872997682  MEMB      37              0.0000000000
      4921        43  POPS      H2R           -25.4475767772       -7.8646209409       13.2043103467  MEMB      37              0.0000000000
      4922        43  POPS      H2S           -25.8779454728       -6.0454837526       13.0126448303  MEMB      37              0.0000000000
      4923        43  POPS      C3            -29.9067102695       -6.1625510536       14.6660511843  MEMB      37              0.0000000000
      4924        43  POPS      HX            -29.3448718286       -5.2593127574       14.9867057104  MEMB      37              0.0000000000
      4925        43  POPS      HY            -30.7852204793       -6.2359221104       15.3421854931  MEMB      37              0.0000000000
      4926        43  POPS      O31           -30.3351488047       -6.0191047714       13.2987345900  MEMB      37              0.0000000000
      4927        43  POPS      C31           -30.1910100868       -4.9600925334       12.5681644178  MEMB      37              0.0000000000
      4928        43  POPS      O32           -29.5009133424       -3.9611909866       12.7149984395  MEMB      37              0.0000000000
      4929        43  POPS      C32           -30.8749947784       -5.2014074025       11.1848128035  MEMB      37              0.0000000000
      4930        43  POPS      H2X           -31.7943046234       -4.5800367432       11.1292345976  MEMB      37              0.0000000000
      4931        43  POPS      H2Y           -31.2003091467       -6.2562626234       11.0592267715  MEMB      37              0.0000000000
      4932        43  POPS      C23           -25.8478788631       -7.5213434740       11.1667070381  MEMB      37              0.0000000000
      4933        43  POPS      H3R           -26.2200808613       -8.5439394706       10.9429131952  MEMB      37              0.0000000000
      4934        43  POPS      H3S           -24.7441820170       -7.6371717957       11.1141886875  MEMB      37              0.0000000000
      4935        43  POPS      C24           -26.3280979837       -6.5723732457       10.0436618080  MEMB      37              0.0000000000
      4936        43  POPS      H4R           -26.4142983441       -5.5844952964       10.5446479170  MEMB      37              0.0000000000
      4937        43  POPS      H4S           -27.3399944102       -6.8465346932        9.6759362865  MEMB      37              0.0000000000
      4938        43  POPS      C25           -25.3853527815       -6.3852979609        8.8963857717  MEMB      37              0.0000000000
      4939        43  POPS      H5R           -25.3743916196       -7.3141684392        8.2869590198  MEMB      37              0.0000000000
      4940        43  POPS      H5S           -24.3638656575       -6.1797839235        9.2819354398  MEMB      37              0.0000000000
      4941        43  POPS      C26           -25.6267600033       -5.1982665315        7.9534840431  MEMB      37              0.0000000000
      4942        43  POPS      H6R           -24.7417766115       -5.0268597804        7.3040643123  MEMB      37              0.0000000000
      4943        43  POPS      H6S           -25.7947602606       -4.3107216673        8.6002924996  MEMB      37              0.0000000000
      4944        43  POPS      C27           -26.9286561253       -5.1911962767        7.0577944469  MEMB      37              0.0000000000
      4945        43  POPS      H7R           -26.9754427590       -4.1801691151        6.5995852463  MEMB      37              0.0000000000
      4946        43  POPS      H7S           -27.8107020238       -5.3553882494        7.7130476714  MEMB      37              0.0000000000
      4947        43  POPS      C28           -26.7670403043       -6.1825626400        5.9762794258  MEMB      37              0.0000000000
      4948        43  POPS      H8R           -27.6818355853       -6.3281971017        5.3628786882  MEMB      37              0.0000000000
      4949        43  POPS      H8S           -26.7807518476       -7.1818156768        6.4616933627  MEMB      37              0.0000000000
      4950        43  POPS      C29           -25.6851011896       -5.9742675252        4.9560958942  MEMB      37              0.0000000000
      4951        43  POPS      H91           -24.6726973028       -6.1145604802        5.3627362382  MEMB      37              0.0000000000
      4952        43  POPS      C210          -25.8436602756       -5.5036392033        3.6949825499  MEMB      37              0.0000000000
      4953        43  POPS      H101          -24.9712533802       -5.4007991633        3.0329175273  MEMB      37              0.0000000000
      4954        43  POPS      C211          -27.1486204367       -5.1323118924        2.9798940469  MEMB      37              0.0000000000
      4955        43  POPS      H11R          -27.9361396392       -5.6797390600        3.5406591389  MEMB      37              0.0000000000
      4956        43  POPS      H11S          -27.1147080700       -5.4966953903        1.9308966961  MEMB      37              0.0000000000
      4957        43  POPS      C212          -27.6543821114       -3.6053338955        3.0092828383  MEMB      37              0.0000000000
      4958        43  POPS      H12R          -28.0923702323       -3.3948363483        4.0083719037  MEMB      37              0.0000000000
      4959        43  POPS      H12S          -28.5252095561       -3.6868518485        2.3242017987  MEMB      37              0.0000000000
      4960        43  POPS      C213          -26.6576935577       -2.5124825240        2.5228275349  MEMB      37              0.0000000000
      4961        43  POPS      H13R          -26.3610273073       -2.7186782393        1.4722113909  MEMB      37              0.0000000000
      4962        43  POPS      H13S          -25.7634026911       -2.6075837812        3.1751466402  MEMB      37              0.0000000000
      4963        43  POPS      C214          -27.3008491206       -1.0852902948        2.6251569221  MEMB      37              0.0000000000
      4964        43  POPS      H14R          -26.4751986313       -0.4473071609        2.2435812059  MEMB      37              0.0000000000
      4965        43  POPS      H14S          -27.5789921142       -0.9014123806        3.6849429009  MEMB      37              0.0000000000
      4966        43  POPS      C215          -28.5964366460       -0.9529744003        1.7667844354  MEMB      37              0.0000000000
      4967        43  POPS      H15R          -28.8660961027        0.1161017716        1.9034633787  MEMB      37              0.0000000000
      4968        43  POPS      H15S          -29.3853523601       -1.5647243782        2.2543244544  MEMB      37              0.0000000000
      4969        43  POPS      C216          -28.3998719051       -1.2046451998        0.2548011800  MEMB      37              0.0000000000
      4970        43  POPS      H16R          -28.2499663549       -2.2724913352       -0.0126953510  MEMB      37              0.0000000000
      4971        43  POPS      H16S          -27.3564672577       -0.8439782671        0.1301132188  MEMB      37              0.0000000000
      4972        43  POPS      C217          -29.5495178097       -0.5898631799       -0.6249143355  MEMB      37              0.0000000000
      4973        43  POPS      H17R          -29.5897362859        0.4820223109       -0.3354916896  MEMB      37              0.0000000000
      4974        43  POPS      H17S          -30.5138164549       -1.0329819803       -0.2961363502  MEMB      37              0.0000000000
      4975        43  POPS      C218          -29.3903633852       -0.7460535079       -2.0892370552  MEMB      37              0.0000000000
      4976        43  POPS      H18R          -28.5560136452       -0.0790664495       -2.3947022967  MEMB      37              0.0000000000
      4977        43  POPS      H18S          -30.3021351307       -0.3334714661       -2.5716987872  MEMB      37              0.0000000000
      4978        43  POPS      H18T          -29.1154531356       -1.7959861399       -2.3266942595  MEMB      37              0.0000000000
      4979        43  POPS      C33           -29.9066803731       -4.8239483776       10.0075108926  MEMB      37              0.0000000000
      4980        43  POPS      H3X           -28.9989087407       -5.4640104525        9.9831722901  MEMB      37              0.0000000000
      4981        43  POPS      H3Y           -29.5936692339       -3.7630377467       10.1114988878  MEMB      37              0.0000000000
      4982        43  POPS      C34           -30.5263753519       -4.9160061077        8.6514415056  MEMB      37              0.0000000000
      4983        43  POPS      H4X           -29.7622945225       -4.4945950521        7.9637541089  MEMB      37              0.0000000000
      4984        43  POPS      H4Y           -31.4273640233       -4.2659775223        8.6496104696  MEMB      37              0.0000000000
      4985        43  POPS      C35           -31.0793241552       -6.2783891382        8.2083675128  MEMB      37              0.0000000000
      4986        43  POPS      H5X           -31.7021663108       -6.2524570625        7.2887398731  MEMB      37              0.0000000000
      4987        43  POPS      H5Y           -31.6467971165       -6.8246475588        8.9918841179  MEMB      37              0.0000000000
      4988        43  POPS      C36           -29.8784262307       -7.3172897497        8.0131907371  MEMB      37              0.0000000000
      4989        43  POPS      H6X           -29.1462109674       -7.3767166428        8.8466481410  MEMB      37              0.0000000000
      4990        43  POPS      H6Y           -29.2032042793       -7.0044749964        7.1882400350  MEMB      37              0.0000000000
      4991        43  POPS      C37           -30.3969971953       -8.7593374700        7.8113480200  MEMB      37              0.0000000000
      4992        43  POPS      H7X           -30.7030526001       -9.1625159470        8.8003362349  MEMB      37              0.0000000000
      4993        43  POPS      H7Y           -29.5343751919       -9.3526387134        7.4395982064  MEMB      37              0.0000000000
      4994        43  POPS      C38           -31.5880209389       -8.8287743023        6.8837399471  MEMB      37              0.0000000000
      4995        43  POPS      H8X           -32.3476874945       -8.0499142288        7.1086945767  MEMB      37              0.0000000000
      4996        43  POPS      H8Y           -31.9619316397       -9.8595860712        7.0624560520  MEMB      37              0.0000000000
      4997        43  POPS      C39           -31.1844516280       -8.6557118634        5.4191743974  MEMB      37              0.0000000000
      4998        43  POPS      H9X           -30.6044115950       -9.5864527644        5.2414215209  MEMB      37              0.0000000000
      4999        43  POPS      H9Y           -30.5516753635       -7.7542909043        5.2730400855  MEMB      37              0.0000000000
      5000        43  POPS      C310          -32.3254117017       -8.5299992976        4.3566355240  MEMB      37              0.0000000000
      5001        43  POPS      H10X          -33.1340015353       -7.9348837463        4.8323889483  MEMB      37              0.0000000000
      5002        43  POPS      H10Y          -32.7285362788       -9.5384711548        4.1225494714  MEMB      37              0.0000000000
      5003        43  POPS      C311          -31.7505213623       -8.0323597096        2.9938483590  MEMB      37              0.0000000000
      5004        43  POPS      H11X          -32.3911417772       -8.1797542021        2.0981926864  MEMB      37              0.0000000000
      5005        43  POPS      H11Y          -30.8126961591       -8.5983773021        2.8082990157  MEMB      37              0.0000000000
      5006        43  POPS      C312          -31.6037290862       -6.5357955391        3.0712850565  MEMB      37              0.0000000000
      5007        43  POPS      H12X          -30.7355618446       -6.2404003595        3.6984596915  MEMB      37              0.0000000000
      5008        43  POPS      H12Y          -32.4972162287       -6.1044955426        3.5712669290  MEMB      37              0.0000000000
      5009        43  POPS      C313          -31.4261284369       -5.8258669231        1.6900635157  MEMB      37              0.0000000000
      5010        43  POPS      H13X          -31.3588549458       -4.7395065626        1.9128110949  MEMB      37              0.0000000000
      5011        43  POPS      H13Y          -32.1837100021       -6.2302224057        0.9851600654  MEMB      37              0.0000000000
      5012        43  POPS      C314          -30.0511785115       -6.1053889639        1.0813748975  MEMB      37              0.0000000000
      5013        43  POPS      H14X          -29.3269706544       -6.4568705484        1.8470799626  MEMB      37              0.0000000000
      5014        43  POPS      H14Y          -29.6932699445       -5.1434842416        0.6559774093  MEMB      37              0.0000000000
      5015        43  POPS      C315          -29.9826244713       -7.0705985898       -0.1490624850  MEMB      37              0.0000000000
      5016        43  POPS      H15X          -30.6680390329       -6.7017550353       -0.9418307337  MEMB      37              0.0000000000
      5017        43  POPS      H15Y          -30.4562953732       -8.0079114312        0.2134312962  MEMB      37              0.0000000000
      5018        43  POPS      C316          -28.5814432726       -7.2963626435       -0.6535245846  MEMB      37              0.0000000000
      5019        43  POPS      H16X          -28.0880492538       -7.9276697199        0.1161090182  MEMB      37              0.0000000000
      5020        43  POPS      H16Y          -28.0492724123       -6.3227458411       -0.7099659126  MEMB      37              0.0000000000
      5021        43  POPS      H16Z          -28.7114603379       -7.8156545489       -1.6270490716  MEMB      37              0.0000000000
      5022        44  POPC      N              -7.1757136611      -26.5867591108       19.0433753126  MEMB      38              0.0000000000
      5023        44  POPC      C12            -6.8184619139      -28.0716557111       19.1563247875  MEMB      38              0.0000000000
      5024        44  POPC      H12A           -5.7834590326      -28.1288513483       19.4594712753  MEMB      38              0.0000000000
      5025        44  POPC      H12B           -6.8633293890      -28.4097072444       18.1315770147  MEMB      38              0.0000000000
      5026        44  POPC      C13            -7.1279966102      -25.8097583342       20.3748001010  MEMB      38              0.0000000000
      5027        44  POPC      H13A           -6.1825014311      -26.0195311186       20.8527480674  MEMB      38              0.0000000000
      5028        44  POPC      H13B           -7.2077014284      -24.7535317536       20.1640091466  MEMB      38              0.0000000000
      5029        44  POPC      H13C           -7.9385008255      -26.0715329604       21.0388458685  MEMB      38              0.0000000000
      5030        44  POPC      C14            -6.2391905431      -25.8726691926       18.1143679026  MEMB      38              0.0000000000
      5031        44  POPC      H14A           -6.2876188721      -26.4886972062       17.2286115990  MEMB      38              0.0000000000
      5032        44  POPC      H14B           -6.6314767792      -24.9044438706       17.8404131404  MEMB      38              0.0000000000
      5033        44  POPC      H14C           -5.2103146749      -25.9172024131       18.4396851179  MEMB      38              0.0000000000
      5034        44  POPC      C15            -8.5657509723      -26.4459243093       18.4082815461  MEMB      38              0.0000000000
      5035        44  POPC      H15A           -9.2382678213      -26.9593122671       19.0795147420  MEMB      38              0.0000000000
      5036        44  POPC      H15B           -8.6184304046      -27.0925880735       17.5448865880  MEMB      38              0.0000000000
      5037        44  POPC      H15C           -8.8398026770      -25.4317317109       18.1578638255  MEMB      38              0.0000000000
      5038        44  POPC      C11            -7.6693627632      -28.9197736352       20.0584743646  MEMB      38              0.0000000000
      5039        44  POPC      H11A           -7.5750178337      -28.5006203806       21.0830378361  MEMB      38              0.0000000000
      5040        44  POPC      H11B           -7.2754945669      -29.9566255367       20.1227164565  MEMB      38              0.0000000000
      5041        44  POPC      P              -9.7306435844      -29.8616695430       18.7805288559  MEMB      38              0.0000000000
      5042        44  POPC      O13           -11.0980484532      -29.4085152670       18.5246039790  MEMB      38              0.0000000000
      5043        44  POPC      O14            -9.6804314965      -31.2200216302       19.3001207123  MEMB      38              0.0000000000
      5044        44  POPC      O12            -9.0475550392      -28.8560590456       19.8020024137  MEMB      38              0.0000000000
      5045        44  POPC      O11            -8.9091960359      -29.6600835110       17.4371200217  MEMB      38              0.0000000000
      5046        44  POPC      C1             -8.8455109060      -30.6605206978       16.4317036412  MEMB      38              0.0000000000
      5047        44  POPC      HA             -9.7752089915      -30.6465035030       15.8236034558  MEMB      38              0.0000000000
      5048        44  POPC      HB             -8.8690444624      -31.6788462231       16.8753027297  MEMB      38              0.0000000000
      5049        44  POPC      C2             -7.6383485359      -30.5564589973       15.4397327338  MEMB      38              0.0000000000
      5050        44  POPC      HS             -6.7537497041      -30.9833747749       15.9589135091  MEMB      38              0.0000000000
      5051        44  POPC      O21            -7.5950206792      -29.1818615718       14.9991724932  MEMB      38              0.0000000000
      5052        44  POPC      C21            -6.4691475230      -28.8322474848       14.5255726208  MEMB      38              0.0000000000
      5053        44  POPC      O22            -5.5001454431      -29.5484953576       14.3186529011  MEMB      38              0.0000000000
      5054        44  POPC      C22            -6.3219749757      -27.3475099241       14.6818076632  MEMB      38              0.0000000000
      5055        44  POPC      H2R            -5.8292253910      -27.1229363208       15.6519033303  MEMB      38              0.0000000000
      5056        44  POPC      H2S            -7.3206118907      -26.8660364420       14.7541161276  MEMB      38              0.0000000000
      5057        44  POPC      C3             -7.9535760490      -31.5022605604       14.2759673286  MEMB      38              0.0000000000
      5058        44  POPC      HX             -8.2147090840      -32.4961697930       14.6981936944  MEMB      38              0.0000000000
      5059        44  POPC      HY             -7.0549548270      -31.6237175149       13.6340568086  MEMB      38              0.0000000000
      5060        44  POPC      O31            -9.1757305868      -31.1446997280       13.5670683817  MEMB      38              0.0000000000
      5061        44  POPC      C31            -8.9967168459      -30.2639075014       12.5336697525  MEMB      38              0.0000000000
      5062        44  POPC      O32            -7.8929046512      -29.8564701558       12.1413522207  MEMB      38              0.0000000000
      5063        44  POPC      C32           -10.2991049840      -29.8437963326       11.9437827370  MEMB      38              0.0000000000
      5064        44  POPC      H2X           -10.0901491582      -29.1292463593       11.1191152990  MEMB      38              0.0000000000
      5065        44  POPC      H2Y           -10.8197021977      -29.1263898641       12.6135791468  MEMB      38              0.0000000000
      5066        44  POPC      C23            -5.5248690074      -26.7417406507       13.5525654804  MEMB      38              0.0000000000
      5067        44  POPC      H3R            -4.4911921513      -27.1468745055       13.5937922636  MEMB      38              0.0000000000
      5068        44  POPC      H3S            -5.3148537864      -25.6717877968       13.7656748691  MEMB      38              0.0000000000
      5069        44  POPC      C24            -6.1711202043      -26.8731559976       12.2040042002  MEMB      38              0.0000000000
      5070        44  POPC      H4R            -7.2145817754      -26.5416879747       12.3927849176  MEMB      38              0.0000000000
      5071        44  POPC      H4S            -6.1683801848      -27.9530025012       11.9427659633  MEMB      38              0.0000000000
      5072        44  POPC      C25            -5.4941960189      -26.2658265600       11.0187639754  MEMB      38              0.0000000000
      5073        44  POPC      H5R            -4.4539339705      -26.6559195433       11.0168820201  MEMB      38              0.0000000000
      5074        44  POPC      H5S            -5.4206831029      -25.1622855514       11.1241869347  MEMB      38              0.0000000000
      5075        44  POPC      C26            -6.2611347896      -26.7489454119        9.7653599640  MEMB      38              0.0000000000
      5076        44  POPC      H6R            -7.3299614505      -26.6047606803       10.0320839448  MEMB      38              0.0000000000
      5077        44  POPC      H6S            -6.1545188961      -27.8397125158        9.5832028211  MEMB      38              0.0000000000
      5078        44  POPC      C27            -5.9758408146      -25.9848935743        8.4216742083  MEMB      38              0.0000000000
      5079        44  POPC      H7R            -4.9763023166      -26.2340958192        8.0055707262  MEMB      38              0.0000000000
      5080        44  POPC      H7S            -5.9240674464      -24.9282473881        8.7609970311  MEMB      38              0.0000000000
      5081        44  POPC      C28            -7.0601820850      -26.2220380885        7.3907473527  MEMB      38              0.0000000000
      5082        44  POPC      H8R            -6.9589733890      -25.4742772082        6.5753135157  MEMB      38              0.0000000000
      5083        44  POPC      H8S            -8.0371242990      -26.0920844544        7.9035987276  MEMB      38              0.0000000000
      5084        44  POPC      C29            -7.0618003119      -27.5971090253        6.8002660675  MEMB      38              0.0000000000
      5085        44  POPC      H91            -7.7323014386      -28.3819933759        7.1802463436  MEMB      38              0.0000000000
      5086        44  POPC      C210           -6.3703180138      -27.8846615351        5.7031297999  MEMB      38              0.0000000000
      5087        44  POPC      H101           -6.2717490360      -28.9571378370        5.4793470493  MEMB      38              0.0000000000
      5088        44  POPC      C211           -5.4589651499      -26.9541828503        4.8739192156  MEMB      38              0.0000000000
      5089        44  POPC      H11R           -4.4690260658      -27.4417844221        4.7451304071  MEMB      38              0.0000000000
      5090        44  POPC      H11S           -5.3046481290      -25.9867183547        5.3978653246  MEMB      38              0.0000000000
      5091        44  POPC      C212           -6.1631772349      -26.5856919027        3.5243261922  MEMB      38              0.0000000000
      5092        44  POPC      H12R           -7.0343757363      -25.9510367868        3.7936723422  MEMB      38              0.0000000000
      5093        44  POPC      H12S           -6.5455974054      -27.4979728400        3.0185402620  MEMB      38              0.0000000000
      5094        44  POPC      C213           -5.2849291542      -25.6845061673        2.5465090306  MEMB      38              0.0000000000
      5095        44  POPC      H13R           -4.4032120229      -26.2789362904        2.2247197570  MEMB      38              0.0000000000
      5096        44  POPC      H13S           -4.9932527746      -24.8057232254        3.1605025053  MEMB      38              0.0000000000
      5097        44  POPC      C214           -5.9677847039      -25.3968365541        1.2142210303  MEMB      38              0.0000000000
      5098        44  POPC      H14R           -6.4963168129      -26.2735087535        0.7824569761  MEMB      38              0.0000000000
      5099        44  POPC      H14S           -5.3072415933      -24.9564046412        0.4370313579  MEMB      38              0.0000000000
      5100        44  POPC      C215           -7.0600624079      -24.2001496607        1.3681976965  MEMB      38              0.0000000000
      5101        44  POPC      H15R           -6.4179508376      -23.3482935751        1.6786091002  MEMB      38              0.0000000000
      5102        44  POPC      H15S           -7.6360426822      -24.4921004959        2.2722610421  MEMB      38              0.0000000000
      5103        44  POPC      C216           -7.8313167392      -23.8861712015        0.1108039732  MEMB      38              0.0000000000
      5104        44  POPC      H16R           -7.7708686740      -24.7876895767       -0.5356734367  MEMB      38              0.0000000000
      5105        44  POPC      H16S           -7.3071639201      -23.0794197475       -0.4448372141  MEMB      38              0.0000000000
      5106        44  POPC      C217           -9.2466738838      -23.3704423744        0.2590183670  MEMB      38              0.0000000000
      5107        44  POPC      H17R           -9.3955053632      -22.5194658970        0.9575932621  MEMB      38              0.0000000000
      5108        44  POPC      H17S           -9.8441216174      -24.0786046217        0.8721113976  MEMB      38              0.0000000000
      5109        44  POPC      C218           -9.9490700090      -23.3286218497       -1.0395585696  MEMB      38              0.0000000000
      5110        44  POPC      H18R          -10.9612824316      -22.8966492024       -0.8874194619  MEMB      38              0.0000000000
      5111        44  POPC      H18S          -10.2065221581      -24.3319957876       -1.4411572540  MEMB      38              0.0000000000
      5112        44  POPC      H18T           -9.4294793010      -22.8062048922       -1.8710803914  MEMB      38              0.0000000000
      5113        44  POPC      C33           -11.1680616550      -31.0348918946       11.3394456103  MEMB      38              0.0000000000
      5114        44  POPC      H3X           -11.7165389755      -31.6120102473       12.1143188026  MEMB      38              0.0000000000
      5115        44  POPC      H3Y           -10.3699312483      -31.7342555730       11.0105088850  MEMB      38              0.0000000000
      5116        44  POPC      C34           -12.1373135744      -30.6039137353       10.2165083891  MEMB      38              0.0000000000
      5117        44  POPC      H4X           -12.4227545281      -29.5415200198       10.3719556673  MEMB      38              0.0000000000
      5118        44  POPC      H4Y           -12.9143324310      -31.3931946367       10.1293411277  MEMB      38              0.0000000000
      5119        44  POPC      C35           -11.3871478562      -30.6788072392        8.9189052264  MEMB      38              0.0000000000
      5120        44  POPC      H5X           -10.3251984082      -30.3575765101        8.8606346542  MEMB      38              0.0000000000
      5121        44  POPC      H5Y           -11.9230205691      -30.0767378474        8.1542655249  MEMB      38              0.0000000000
      5122        44  POPC      C36           -11.3409729385      -32.1076114320        8.2223305522  MEMB      38              0.0000000000
      5123        44  POPC      H6X           -12.2448368892      -32.3399965704        7.6195464234  MEMB      38              0.0000000000
      5124        44  POPC      H6Y           -11.2697404006      -32.9493333680        8.9439610966  MEMB      38              0.0000000000
      5125        44  POPC      C37           -10.1463237730      -32.3019257849        7.3174899997  MEMB      38              0.0000000000
      5126        44  POPC      H7X            -9.9855626625      -33.2732443885        6.8026925497  MEMB      38              0.0000000000
      5127        44  POPC      H7Y            -9.2269763167      -32.0190732821        7.8734728964  MEMB      38              0.0000000000
      5128        44  POPC      C38           -10.2341196315      -31.3527495329        6.0952630042  MEMB      38              0.0000000000
      5129        44  POPC      H8X           -10.4148839320      -30.3313399325        6.4932174657  MEMB      38              0.0000000000
      5130        44  POPC      H8Y           -11.1712338055      -31.5516785621        5.5326219299  MEMB      38              0.0000000000
      5131        44  POPC      C39            -8.8373435207      -31.4671350828        5.4129065515  MEMB      38              0.0000000000
      5132        44  POPC      H9X            -8.4065627198      -32.4731405547        5.6044842708  MEMB      38              0.0000000000
      5133        44  POPC      H9Y            -8.1086754293      -30.7533637215        5.8532414770  MEMB      38              0.0000000000
      5134        44  POPC      C310           -9.0256525740      -31.3667590124        3.8351436709  MEMB      38              0.0000000000
      5135        44  POPC      H10X           -9.0677606060      -30.3181243396        3.4705702528  MEMB      38              0.0000000000
      5136        44  POPC      H10Y           -9.9726164828      -31.8212049275        3.4731224072  MEMB      38              0.0000000000
      5137        44  POPC      C311           -7.8691442147      -31.9392530650        2.9464295853  MEMB      38              0.0000000000
      5138        44  POPC      H11X           -7.9429154700      -33.0404684165        3.0737233835  MEMB      38              0.0000000000
      5139        44  POPC      H11Y           -7.0046320273      -31.4657788149        3.4590330944  MEMB      38              0.0000000000
      5140        44  POPC      C312           -7.9473895344      -31.7765545941        1.4127516063  MEMB      38              0.0000000000
      5141        44  POPC      H12X           -8.8006928993      -32.2732621608        0.9033643449  MEMB      38              0.0000000000
      5142        44  POPC      H12Y           -7.0402241204      -32.2359417596        0.9651625019  MEMB      38              0.0000000000
      5143        44  POPC      C313           -7.9024157974      -30.2495749771        1.1059352233  MEMB      38              0.0000000000
      5144        44  POPC      H13X           -7.0537255845      -29.7351109477        1.6053083613  MEMB      38              0.0000000000
      5145        44  POPC      H13Y           -8.9207288396      -29.8982129073        1.3777888105  MEMB      38              0.0000000000
      5146        44  POPC      C314           -7.8282507555      -30.0900650499       -0.4254968298  MEMB      38              0.0000000000
      5147        44  POPC      H14X           -8.5594980257      -30.7234773263       -0.9717450298  MEMB      38              0.0000000000
      5148        44  POPC      H14Y           -6.8213284474      -30.4184709246       -0.7610236137  MEMB      38              0.0000000000
      5149        44  POPC      C315           -7.9192924614      -28.7085783022       -1.0923175990  MEMB      38              0.0000000000
      5150        44  POPC      H15X           -7.2764159647      -28.6852997245       -1.9981252393  MEMB      38              0.0000000000
      5151        44  POPC      H15Y           -7.4183989563      -27.9416554238       -0.4636220229  MEMB      38              0.0000000000
      5152        44  POPC      C316           -9.3055789127      -28.1846293244       -1.4975619995  MEMB      38              0.0000000000
      5153        44  POPC      H16X           -9.2548693986      -27.3337008786       -2.2100714911  MEMB      38              0.0000000000
      5154        44  POPC      H16Y           -9.9124860147      -27.8009887856       -0.6497375268  MEMB      38              0.0000000000
      5155        44  POPC      H16Z           -9.8050248850      -29.0380219699       -2.0041138061  MEMB      38              0.0000000000
      5156        45  POPC      N              30.3777923808       -3.6958095448       20.4664838512  MEMB      39              0.0000000000
      5157        45  POPC      C12            29.6288270704       -3.8687021240       19.1896715042  MEMB      39              0.0000000000
      5158        45  POPC      H12A           28.5839957685       -3.7357186328       19.4285082154  MEMB      39              0.0000000000
      5159        45  POPC      H12B           29.8536629733       -4.8758946394       18.8712191748  MEMB      39              0.0000000000
      5160        45  POPC      C13            31.8510968966       -3.2082517012       20.2148620015  MEMB      39              0.0000000000
      5161        45  POPC      H13A           32.5155832218       -3.9939267147       19.8868789367  MEMB      39              0.0000000000
      5162        45  POPC      H13B           31.8692923765       -2.4933693163       19.4055338439  MEMB      39              0.0000000000
      5163        45  POPC      H13C           32.2280279984       -2.8528353871       21.1624916387  MEMB      39              0.0000000000
      5164        45  POPC      C14            29.6672543430       -2.6164627186       21.2518492252  MEMB      39              0.0000000000
      5165        45  POPC      H14A           30.2783896894       -2.3310511708       22.0953264372  MEMB      39              0.0000000000
      5166        45  POPC      H14B           29.2621929650       -1.7613659072       20.7311430963  MEMB      39              0.0000000000
      5167        45  POPC      H14C           28.8898314364       -3.0891772637       21.8337035515  MEMB      39              0.0000000000
      5168        45  POPC      C15            30.4997609606       -5.0313951893       21.1714163378  MEMB      39              0.0000000000
      5169        45  POPC      H15A           31.0206187160       -4.7117318370       22.0618783233  MEMB      39              0.0000000000
      5170        45  POPC      H15B           31.0918080496       -5.7846089051       20.6728691706  MEMB      39              0.0000000000
      5171        45  POPC      H15C           29.5042297260       -5.3388426506       21.4556587351  MEMB      39              0.0000000000
      5172        45  POPC      C11            29.7912871897       -2.7166770482       18.0601994268  MEMB      39              0.0000000000
      5173        45  POPC      H11A           29.1011213760       -2.8724683328       17.2036241398  MEMB      39              0.0000000000
      5174        45  POPC      H11B           30.8180480140       -2.8757984322       17.6667992890  MEMB      39              0.0000000000
      5175        45  POPC      P              29.6342025390       -0.1722865512       17.7368379693  MEMB      39              0.0000000000
      5176        45  POPC      O13            29.1678382254        1.0228581776       18.4730350447  MEMB      39              0.0000000000
      5177        45  POPC      O14            28.8984822005       -0.5520305324       16.5287265374  MEMB      39              0.0000000000
      5178        45  POPC      O12            29.6284823797       -1.4250246876       18.5957636102  MEMB      39              0.0000000000
      5179        45  POPC      O11            31.1764202266        0.0285525608       17.3111544538  MEMB      39              0.0000000000
      5180        45  POPC      C1             32.1018271203        0.3414224251       18.3866439505  MEMB      39              0.0000000000
      5181        45  POPC      HA             31.8567327296       -0.1552845881       19.3497285263  MEMB      39              0.0000000000
      5182        45  POPC      HB             31.9682131846        1.4242867374       18.5961040505  MEMB      39              0.0000000000
      5183        45  POPC      C2             33.5907675951        0.2221848780       17.9811719043  MEMB      39              0.0000000000
      5184        45  POPC      HS             34.2180133715        0.7544630240       18.7278740947  MEMB      39              0.0000000000
      5185        45  POPC      O21            33.7459232247        0.7163347325       16.6449332582  MEMB      39              0.0000000000
      5186        45  POPC      C21            33.2839663719        1.9138463483       16.3573860072  MEMB      39              0.0000000000
      5187        45  POPC      O22            32.9297156630        2.8390087146       17.0550396033  MEMB      39              0.0000000000
      5188        45  POPC      C22            33.4845235301        2.0506474135       14.8477767596  MEMB      39              0.0000000000
      5189        45  POPC      H2R            34.0475631213        1.1653704474       14.4822741338  MEMB      39              0.0000000000
      5190        45  POPC      H2S            34.1511098801        2.9306004709       14.7226131726  MEMB      39              0.0000000000
      5191        45  POPC      C3             34.1653691697       -1.2747340335       17.9543063568  MEMB      39              0.0000000000
      5192        45  POPC      HX             34.0243751859       -1.5708536772       19.0157934781  MEMB      39              0.0000000000
      5193        45  POPC      HY             35.2356492659       -1.2656101512       17.6564169311  MEMB      39              0.0000000000
      5194        45  POPC      O31            33.2818812633       -1.9958085181       17.0668532625  MEMB      39              0.0000000000
      5195        45  POPC      C31            33.7408320699       -2.2712053226       15.8283183640  MEMB      39              0.0000000000
      5196        45  POPC      O32            34.8404376474       -1.8937610207       15.4040768310  MEMB      39              0.0000000000
      5197        45  POPC      C32            32.7312532483       -3.0183179935       14.9785662021  MEMB      39              0.0000000000
      5198        45  POPC      H2X            32.2216079969       -3.8118049163       15.5658999492  MEMB      39              0.0000000000
      5199        45  POPC      H2Y            33.2574151435       -3.6401021826       14.2230138294  MEMB      39              0.0000000000
      5200        45  POPC      C23            32.1375844711        2.1731434465       14.1418522612  MEMB      39              0.0000000000
      5201        45  POPC      H3R            31.6936985038        3.1338710975       14.4799183576  MEMB      39              0.0000000000
      5202        45  POPC      H3S            31.5542739078        1.2586946435       14.3823793213  MEMB      39              0.0000000000
      5203        45  POPC      C24            32.4240376577        2.1494129347       12.6676788420  MEMB      39              0.0000000000
      5204        45  POPC      H4R            32.8494770664        1.1585091835       12.4004110067  MEMB      39              0.0000000000
      5205        45  POPC      H4S            33.1532426676        2.9628238265       12.4653326403  MEMB      39              0.0000000000
      5206        45  POPC      C25            31.2187525880        2.5161561010       11.7521215417  MEMB      39              0.0000000000
      5207        45  POPC      H5R            30.8626492177        3.4641246538       12.2091414006  MEMB      39              0.0000000000
      5208        45  POPC      H5S            30.4125683206        1.8022093898       12.0253754091  MEMB      39              0.0000000000
      5209        45  POPC      C26            31.4384802124        2.4340448934       10.2397040992  MEMB      39              0.0000000000
      5210        45  POPC      H6R            30.4436293356        2.6803863340        9.8108578445  MEMB      39              0.0000000000
      5211        45  POPC      H6S            31.7295603466        1.4153361180        9.9053005106  MEMB      39              0.0000000000
      5212        45  POPC      C27            32.3371588832        3.5199997844        9.6457244605  MEMB      39              0.0000000000
      5213        45  POPC      H7R            33.3390641152        3.4494017865       10.1206173570  MEMB      39              0.0000000000
      5214        45  POPC      H7S            31.9458216218        4.5063364154        9.9748386795  MEMB      39              0.0000000000
      5215        45  POPC      C28            32.7769811471        3.4430707460        8.2273221699  MEMB      39              0.0000000000
      5216        45  POPC      H8R            33.3272304112        4.3564698410        7.9154750902  MEMB      39              0.0000000000
      5217        45  POPC      H8S            31.9072951943        3.4351337134        7.5360159241  MEMB      39              0.0000000000
      5218        45  POPC      C29            33.7489872207        2.3231149089        7.8403366186  MEMB      39              0.0000000000
      5219        45  POPC      H91            34.4963372833        2.2237619352        8.6413340455  MEMB      39              0.0000000000
      5220        45  POPC      C210           33.6715322522        1.5285438674        6.8294849355  MEMB      39              0.0000000000
      5221        45  POPC      H101           34.4580081468        0.7870852289        6.6252929081  MEMB      39              0.0000000000
      5222        45  POPC      C211           32.5826413273        1.5153079918        5.7621673864  MEMB      39              0.0000000000
      5223        45  POPC      H11R           31.6101803300        1.7325413134        6.2535439837  MEMB      39              0.0000000000
      5224        45  POPC      H11S           32.6685529284        0.5173714702        5.2814779919  MEMB      39              0.0000000000
      5225        45  POPC      C212           32.6748344372        2.8069963592        4.8251871358  MEMB      39              0.0000000000
      5226        45  POPC      H12R           32.7643137909        3.7791222124        5.3555499260  MEMB      39              0.0000000000
      5227        45  POPC      H12S           31.6962342104        2.8938380222        4.3064184112  MEMB      39              0.0000000000
      5228        45  POPC      C213           33.6774232620        2.6482068562        3.6828047789  MEMB      39              0.0000000000
      5229        45  POPC      H13R           34.6698890088        2.4749703670        4.1511227156  MEMB      39              0.0000000000
      5230        45  POPC      H13S           33.6907338806        3.5694289306        3.0619236589  MEMB      39              0.0000000000
      5231        45  POPC      C214           33.5227013458        1.4287650404        2.8537608456  MEMB      39              0.0000000000
      5232        45  POPC      H14R           32.4940392213        1.3587170909        2.4399141687  MEMB      39              0.0000000000
      5233        45  POPC      H14S           33.6748705340        0.5239985826        3.4803082144  MEMB      39              0.0000000000
      5234        45  POPC      C215           34.5231378395        1.3549963978        1.6923680358  MEMB      39              0.0000000000
      5235        45  POPC      H15R           35.4920943091        1.1506264954        2.1960320923  MEMB      39              0.0000000000
      5236        45  POPC      H15S           34.5608951244        2.3104918803        1.1267497570  MEMB      39              0.0000000000
      5237        45  POPC      C216           34.3005057703        0.1404752311        0.8407501816  MEMB      39              0.0000000000
      5238        45  POPC      H16R           33.4014972340        0.3254849769        0.2147497486  MEMB      39              0.0000000000
      5239        45  POPC      H16S           33.9913183144       -0.7410594633        1.4420990620  MEMB      39              0.0000000000
      5240        45  POPC      C217           35.5654258795       -0.4112895724        0.1652639056  MEMB      39              0.0000000000
      5241        45  POPC      H17R           36.2319885298       -0.8733838654        0.9245297409  MEMB      39              0.0000000000
      5242        45  POPC      H17S           36.0745920945        0.3599398106       -0.4514029637  MEMB      39              0.0000000000
      5243        45  POPC      C218           35.1393184526       -1.6418713196       -0.7344285377  MEMB      39              0.0000000000
      5244        45  POPC      H18R           35.9947377400       -1.9133573426       -1.3893130365  MEMB      39              0.0000000000
      5245        45  POPC      H18S           34.2247064768       -1.5219073318       -1.3536325458  MEMB      39              0.0000000000
      5246        45  POPC      H18T           34.8572460703       -2.4497413279       -0.0258347088  MEMB      39              0.0000000000
      5247        45  POPC      C33            31.7806073079       -2.0364528725       14.2688766979  MEMB      39              0.0000000000
      5248        45  POPC      H3X            32.3677868296       -1.2895016591       13.6930252233  MEMB      39              0.0000000000
      5249        45  POPC      H3Y            31.1478936405       -1.4877109183       14.9988609774  MEMB      39              0.0000000000
      5250        45  POPC      C34            30.7362189596       -2.7970198479       13.3907991275  MEMB      39              0.0000000000
      5251        45  POPC      H4X            29.9865839742       -2.0798338908       12.9932907780  MEMB      39              0.0000000000
      5252        45  POPC      H4Y            30.1976828241       -3.6108751416       13.9217787297  MEMB      39              0.0000000000
      5253        45  POPC      C35            31.2980106420       -3.4007269411       12.0862013804  MEMB      39              0.0000000000
      5254        45  POPC      H5X            30.4589777136       -3.9157652863       11.5713420082  MEMB      39              0.0000000000
      5255        45  POPC      H5Y            32.0775934682       -4.1413610950       12.3655439013  MEMB      39              0.0000000000
      5256        45  POPC      C36            31.8673200744       -2.4664231415       10.9662117501  MEMB      39              0.0000000000
      5257        45  POPC      H6X            32.4751815419       -3.0594001974       10.2498293447  MEMB      39              0.0000000000
      5258        45  POPC      H6Y            32.4373382991       -1.6681682648       11.4879293990  MEMB      39              0.0000000000
      5259        45  POPC      C37            30.7011727084       -1.8092017062       10.1097146184  MEMB      39              0.0000000000
      5260        45  POPC      H7X            30.4185764655       -0.8659213580       10.6241880810  MEMB      39              0.0000000000
      5261        45  POPC      H7Y            29.8969149097       -2.5755896434       10.1215436774  MEMB      39              0.0000000000
      5262        45  POPC      C38            31.2800958832       -1.3808792404        8.7657353265  MEMB      39              0.0000000000
      5263        45  POPC      H8X            31.7369652144       -2.2177775000        8.1954778234  MEMB      39              0.0000000000
      5264        45  POPC      H8Y            32.1368577728       -0.6955919079        8.9408390694  MEMB      39              0.0000000000
      5265        45  POPC      C39            30.3265129097       -0.6628103869        7.8982989605  MEMB      39              0.0000000000
      5266        45  POPC      H9X            30.7820928475       -0.6138719877        6.8861861859  MEMB      39              0.0000000000
      5267        45  POPC      H9Y            30.1500526888        0.3240019668        8.3772397181  MEMB      39              0.0000000000
      5268        45  POPC      C310           28.9791865783       -1.4898933779        7.5595723038  MEMB      39              0.0000000000
      5269        45  POPC      H10X           28.4704911035       -0.9452107445        6.7356352913  MEMB      39              0.0000000000
      5270        45  POPC      H10Y           28.2052067681       -1.6613597017        8.3379523669  MEMB      39              0.0000000000
      5271        45  POPC      C311           29.1890699835       -2.8313479702        6.7720403186  MEMB      39              0.0000000000
      5272        45  POPC      H11X           28.2566888099       -3.4312729168        6.7007908934  MEMB      39              0.0000000000
      5273        45  POPC      H11Y           29.8064221053       -3.4883568706        7.4212993458  MEMB      39              0.0000000000
      5274        45  POPC      C312           29.8173927099       -2.7181730423        5.3915436897  MEMB      39              0.0000000000
      5275        45  POPC      H12X           29.7850916021       -1.6563577005        5.0662352519  MEMB      39              0.0000000000
      5276        45  POPC      H12Y           29.2136579650       -3.3683230242        4.7228660973  MEMB      39              0.0000000000
      5277        45  POPC      C313           31.2447277961       -3.2688306724        5.3333108762  MEMB      39              0.0000000000
      5278        45  POPC      H13X           31.2442131349       -4.3464972099        5.6034134273  MEMB      39              0.0000000000
      5279        45  POPC      H13Y           31.9067349171       -2.8469064292        6.1194704018  MEMB      39              0.0000000000
      5280        45  POPC      C314           31.9635180452       -3.0375449557        3.9626829330  MEMB      39              0.0000000000
      5281        45  POPC      H14X           32.9019955912       -3.6319879972        3.9479031735  MEMB      39              0.0000000000
      5282        45  POPC      H14Y           32.2398995350       -1.9622055379        3.9229400164  MEMB      39              0.0000000000
      5283        45  POPC      C315           31.1931390543       -3.3864903142        2.7065649628  MEMB      39              0.0000000000
      5284        45  POPC      H15X           30.2193335191       -2.8801050337        2.5345258427  MEMB      39              0.0000000000
      5285        45  POPC      H15Y           30.9805831809       -4.4764966769        2.7386149397  MEMB      39              0.0000000000
      5286        45  POPC      C316           31.9890637922       -3.1829068365        1.3803451183  MEMB      39              0.0000000000
      5287        45  POPC      H16X           32.2823131114       -2.1115400309        1.3580256756  MEMB      39              0.0000000000
      5288        45  POPC      H16Y           31.2958082964       -3.2021602858        0.5123901552  MEMB      39              0.0000000000
      5289        45  POPC      H16Z           32.8365104799       -3.9008202830        1.4078314414  MEMB      39              0.0000000000
      5290        46  POPC      N              -7.0184163146       30.6144725813       20.4950073816  MEMB      40              0.0000000000
      5291        46  POPC      C12            -7.0950266620       30.6865290441       18.9676465630  MEMB      40              0.0000000000
      5292        46  POPC      H12A           -6.2305873660       31.2648556440       18.6766431393  MEMB      40              0.0000000000
      5293        46  POPC      H12B           -8.0017432459       31.2336257625       18.7556315659  MEMB      40              0.0000000000
      5294        46  POPC      C13            -7.5093322311       31.9000952057       21.0842843541  MEMB      40              0.0000000000
      5295        46  POPC      H13A           -7.2677969772       32.0053651865       22.1316519694  MEMB      40              0.0000000000
      5296        46  POPC      H13B           -7.0655014106       32.6178908936       20.4103531228  MEMB      40              0.0000000000
      5297        46  POPC      H13C           -8.5826096734       31.8959710870       20.9640405614  MEMB      40              0.0000000000
      5298        46  POPC      C14            -7.8211679012       29.5200134856       21.0018115416  MEMB      40              0.0000000000
      5299        46  POPC      H14A           -8.7601553325       29.6961966152       20.4981626302  MEMB      40              0.0000000000
      5300        46  POPC      H14B           -7.3729756697       28.5637146853       20.7759434468  MEMB      40              0.0000000000
      5301        46  POPC      H14C           -7.7847685704       29.4956736115       22.0809236643  MEMB      40              0.0000000000
      5302        46  POPC      C15            -5.6182905745       30.5215433418       20.9203818419  MEMB      40              0.0000000000
      5303        46  POPC      H15A           -5.0806996025       31.4333539409       20.7059125744  MEMB      40              0.0000000000
      5304        46  POPC      H15B           -5.2619461598       29.7396257461       20.2661467587  MEMB      40              0.0000000000
      5305        46  POPC      H15C           -5.6113238602       30.2951053473       21.9763540463  MEMB      40              0.0000000000
      5306        46  POPC      C11            -7.0289058171       29.3237425895       18.1416884701  MEMB      40              0.0000000000
      5307        46  POPC      H11A           -6.9012986920       29.4734254309       17.0482387143  MEMB      40              0.0000000000
      5308        46  POPC      H11B           -7.9313504374       28.7299054926       18.4010572904  MEMB      40              0.0000000000
      5309        46  POPC      P              -5.0624720337       27.6877722963       17.6979439053  MEMB      40              0.0000000000
      5310        46  POPC      O13            -5.9339070876       26.5606982826       17.2251230429  MEMB      40              0.0000000000
      5311        46  POPC      O14            -3.7215138907       27.3637264392       18.3438137839  MEMB      40              0.0000000000
      5312        46  POPC      O12            -5.9080226374       28.6012354226       18.5922819592  MEMB      40              0.0000000000
      5313        46  POPC      O11            -4.7821948048       28.7644218142       16.5300171613  MEMB      40              0.0000000000
      5314        46  POPC      C1             -4.0323576437       29.9133491217       16.7971571161  MEMB      40              0.0000000000
      5315        46  POPC      HA             -3.1703096451       29.7383327457       17.4758055054  MEMB      40              0.0000000000
      5316        46  POPC      HB             -4.4876261258       30.6748624611       17.4658492271  MEMB      40              0.0000000000
      5317        46  POPC      C2             -3.5372352130       30.5038342078       15.4520671188  MEMB      40              0.0000000000
      5318        46  POPC      HS             -3.2580135604       31.5599068844       15.6547170471  MEMB      40              0.0000000000
      5319        46  POPC      O21            -4.5183132547       30.4615515890       14.5048807610  MEMB      40              0.0000000000
      5320        46  POPC      C21            -5.3918148170       31.4296415662       14.4649225852  MEMB      40              0.0000000000
      5321        46  POPC      O22            -5.3702748597       32.4157193763       15.2421667366  MEMB      40              0.0000000000
      5322        46  POPC      C22            -6.4770070961       31.0685930388       13.3876621008  MEMB      40              0.0000000000
      5323        46  POPC      H2R            -6.0829294773       30.6586679062       12.4332069749  MEMB      40              0.0000000000
      5324        46  POPC      H2S            -6.9672729003       32.0410465681       13.1679018252  MEMB      40              0.0000000000
      5325        46  POPC      C3             -2.2690525615       29.8624055398       14.9462358545  MEMB      40              0.0000000000
      5326        46  POPC      HX             -2.2908757116       28.7561736762       15.0467132969  MEMB      40              0.0000000000
      5327        46  POPC      HY             -1.4031259451       30.1468403897       15.5815220393  MEMB      40              0.0000000000
      5328        46  POPC      O31            -1.9675753379       30.4050143196       13.6293888665  MEMB      40              0.0000000000
      5329        46  POPC      C31            -2.2836569474       29.5723950999       12.6054906224  MEMB      40              0.0000000000
      5330        46  POPC      O32            -2.9680740594       28.5672591316       12.7179946399  MEMB      40              0.0000000000
      5331        46  POPC      C32            -1.7310160862       29.9761356226       11.2123182886  MEMB      40              0.0000000000
      5332        46  POPC      H2X            -0.7059609983       29.6003200192       11.0065389575  MEMB      40              0.0000000000
      5333        46  POPC      H2Y            -1.7068792476       31.0791594726       11.0816410530  MEMB      40              0.0000000000
      5334        46  POPC      C23            -7.4672522086       30.0227289294       14.0113728165  MEMB      40              0.0000000000
      5335        46  POPC      H3R            -8.1269142818       30.5595127833       14.7262365075  MEMB      40              0.0000000000
      5336        46  POPC      H3S            -7.0185557735       29.1771477256       14.5752746527  MEMB      40              0.0000000000
      5337        46  POPC      C24            -8.4889956941       29.4462107145       13.0075441164  MEMB      40              0.0000000000
      5338        46  POPC      H4R            -9.0748217373       30.2581133026       12.5259393149  MEMB      40              0.0000000000
      5339        46  POPC      H4S            -9.3275468702       28.9399552702       13.5318132920  MEMB      40              0.0000000000
      5340        46  POPC      C25            -7.8824124212       28.6620554951       11.8342663522  MEMB      40              0.0000000000
      5341        46  POPC      H5R            -7.4085562863       29.3283802998       11.0820741406  MEMB      40              0.0000000000
      5342        46  POPC      H5S            -8.7041059044       28.2143543977       11.2353469596  MEMB      40              0.0000000000
      5343        46  POPC      C26            -6.8898408317       27.5773001043       12.3078097605  MEMB      40              0.0000000000
      5344        46  POPC      H6R            -7.2987652808       26.8571229729       13.0483816929  MEMB      40              0.0000000000
      5345        46  POPC      H6S            -5.9989757344       28.0892373431       12.7304216357  MEMB      40              0.0000000000
      5346        46  POPC      C27            -6.2831843615       26.7015055148       11.1741097374  MEMB      40              0.0000000000
      5347        46  POPC      H7R            -5.4647237116       26.0460545398       11.5412979779  MEMB      40              0.0000000000
      5348        46  POPC      H7S            -5.7448876375       27.3372980716       10.4390416218  MEMB      40              0.0000000000
      5349        46  POPC      C28            -7.4328969157       25.9715736238       10.4705418141  MEMB      40              0.0000000000
      5350        46  POPC      H8R            -8.0592500087       26.7189668077        9.9381819192  MEMB      40              0.0000000000
      5351        46  POPC      H8S            -8.0958389969       25.5684244457       11.2657139497  MEMB      40              0.0000000000
      5352        46  POPC      C29            -6.8702866911       24.9957198128        9.5060428911  MEMB      40              0.0000000000
      5353        46  POPC      H91            -6.7898624396       23.9931001427        9.9513352595  MEMB      40              0.0000000000
      5354        46  POPC      C210           -6.5406608515       25.1932950372        8.2098504675  MEMB      40              0.0000000000
      5355        46  POPC      H101           -6.2620553982       24.3455211359        7.5666880452  MEMB      40              0.0000000000
      5356        46  POPC      C211           -6.6944770529       26.4553785882        7.3551106113  MEMB      40              0.0000000000
      5357        46  POPC      H11R           -5.7583477120       26.6562031642        6.7915038454  MEMB      40              0.0000000000
      5358        46  POPC      H11S           -6.9499721478       27.3153306221        8.0104932026  MEMB      40              0.0000000000
      5359        46  POPC      C212           -7.8018082376       26.4731460202        6.2817675186  MEMB      40              0.0000000000
      5360        46  POPC      H12R           -8.7798105068       26.4745332887        6.8088648861  MEMB      40              0.0000000000
      5361        46  POPC      H12S           -7.7693476211       25.5540926185        5.6583829483  MEMB      40              0.0000000000
      5362        46  POPC      C213           -7.7599520819       27.6824035274        5.2783094850  MEMB      40              0.0000000000
      5363        46  POPC      H13R           -7.8100042656       28.6147057912        5.8804962271  MEMB      40              0.0000000000
      5364        46  POPC      H13S           -8.6197065366       27.7030528748        4.5749485898  MEMB      40              0.0000000000
      5365        46  POPC      C214           -6.4264473478       27.8380342931        4.5540153155  MEMB      40              0.0000000000
      5366        46  POPC      H14R           -5.5226764329       27.8414078924        5.2001635273  MEMB      40              0.0000000000
      5367        46  POPC      H14S           -6.4402178899       28.8141028621        4.0235228945  MEMB      40              0.0000000000
      5368        46  POPC      C215           -6.3136066626       26.7550401320        3.4538306617  MEMB      40              0.0000000000
      5369        46  POPC      H15R           -7.3064498400       26.3554929550        3.1555940998  MEMB      40              0.0000000000
      5370        46  POPC      H15S           -5.8577666405       25.8784175372        3.9618307614  MEMB      40              0.0000000000
      5371        46  POPC      C216           -5.4576130842       27.1165055120        2.2246594551  MEMB      40              0.0000000000
      5372        46  POPC      H16R           -5.9234283476       28.0119430700        1.7604077773  MEMB      40              0.0000000000
      5373        46  POPC      H16S           -5.4697102174       26.3170284976        1.4532895364  MEMB      40              0.0000000000
      5374        46  POPC      C217           -3.9724189672       27.3788777054        2.6317698743  MEMB      40              0.0000000000
      5375        46  POPC      H17R           -3.9501563483       28.0486725322        3.5178845885  MEMB      40              0.0000000000
      5376        46  POPC      H17S           -3.5066233774       28.0256606922        1.8578005899  MEMB      40              0.0000000000
      5377        46  POPC      C218           -3.1478223866       26.1009147998        2.8905753316  MEMB      40              0.0000000000
      5378        46  POPC      H18R           -3.7007398761       25.4459177566        3.5973861642  MEMB      40              0.0000000000
      5379        46  POPC      H18S           -2.1408308553       26.4489112429        3.2055158519  MEMB      40              0.0000000000
      5380        46  POPC      H18T           -3.0459677641       25.5102009422        1.9551584005  MEMB      40              0.0000000000
      5381        46  POPC      C33            -2.5815424706       29.3979421392       10.0627550020  MEMB      40              0.0000000000
      5382        46  POPC      H3X            -2.8275089634       28.3340992393       10.2678394440  MEMB      40              0.0000000000
      5383        46  POPC      H3Y            -1.9783868080       29.3456428977        9.1312032644  MEMB      40              0.0000000000
      5384        46  POPC      C34            -3.9189342240       30.1680991696        9.7926344953  MEMB      40              0.0000000000
      5385        46  POPC      H4X            -3.5377434515       31.2112447274        9.7632760419  MEMB      40              0.0000000000
      5386        46  POPC      H4Y            -4.6340441522       30.1209058228       10.6415814565  MEMB      40              0.0000000000
      5387        46  POPC      C35            -4.6230116894       29.8586087691        8.4332211988  MEMB      40              0.0000000000
      5388        46  POPC      H5X            -5.1832386571       28.9157147274        8.6104709774  MEMB      40              0.0000000000
      5389        46  POPC      H5Y            -3.8982341451       29.6941678916        7.6074019543  MEMB      40              0.0000000000
      5390        46  POPC      C36            -5.7804657055       30.8511770052        8.0163847316  MEMB      40              0.0000000000
      5391        46  POPC      H6X            -6.4958361687       30.8178097627        8.8657695025  MEMB      40              0.0000000000
      5392        46  POPC      H6Y            -6.2667909118       30.5190260433        7.0743213929  MEMB      40              0.0000000000
      5393        46  POPC      C37            -5.4741955610       32.3727665364        7.8905513677  MEMB      40              0.0000000000
      5394        46  POPC      H7X            -5.0806095972       32.6882293898        8.8804476939  MEMB      40              0.0000000000
      5395        46  POPC      H7Y            -6.4075557048       32.9342591194        7.6717231637  MEMB      40              0.0000000000
      5396        46  POPC      C38            -4.3896990239       32.7327594809        6.9156974141  MEMB      40              0.0000000000
      5397        46  POPC      H8X            -3.5657578249       31.9907594546        6.8458533190  MEMB      40              0.0000000000
      5398        46  POPC      H8Y            -3.8409622663       33.6517532274        7.2134537158  MEMB      40              0.0000000000
      5399        46  POPC      C39            -4.7913595775       33.0441706985        5.5321191489  MEMB      40              0.0000000000
      5400        46  POPC      H9X            -3.9547568621       33.5326840190        4.9882705727  MEMB      40              0.0000000000
      5401        46  POPC      H9Y            -5.5996994739       33.8063317454        5.5363691272  MEMB      40              0.0000000000
      5402        46  POPC      C310           -5.2206073873       31.9237997631        4.6715685229  MEMB      40              0.0000000000
      5403        46  POPC      H10X           -6.1041705676       31.4661530782        5.1657313381  MEMB      40              0.0000000000
      5404        46  POPC      H10Y           -4.3672926235       31.2837876225        4.9823087230  MEMB      40              0.0000000000
      5405        46  POPC      C311           -5.4348992403       32.3731649248        3.1998622551  MEMB      40              0.0000000000
      5406        46  POPC      H11X           -4.5866819984       32.9832857453        2.8222372763  MEMB      40              0.0000000000
      5407        46  POPC      H11Y           -6.2674734216       33.1087527860        3.1926689706  MEMB      40              0.0000000000
      5408        46  POPC      C312           -5.7902065407       31.1569232196        2.3299343853  MEMB      40              0.0000000000
      5409        46  POPC      H12X           -6.8814773620       30.9822845253        2.4437303211  MEMB      40              0.0000000000
      5410        46  POPC      H12Y           -5.1853682895       30.2421015378        2.5076789709  MEMB      40              0.0000000000
      5411        46  POPC      C313           -5.6197934532       31.5872447343        0.8174998738  MEMB      40              0.0000000000
      5412        46  POPC      H13X           -4.5391836823       31.8452006924        0.8096271955  MEMB      40              0.0000000000
      5413        46  POPC      H13Y           -6.1429906372       32.5547697123        0.6610354122  MEMB      40              0.0000000000
      5414        46  POPC      C314           -6.0796011216       30.4727341448       -0.1803806439  MEMB      40              0.0000000000
      5415        46  POPC      H14X           -7.1661689991       30.3251476403       -0.0017473278  MEMB      40              0.0000000000
      5416        46  POPC      H14Y           -5.5597682716       29.5092354785        0.0087361218  MEMB      40              0.0000000000
      5417        46  POPC      C315           -5.7153032743       30.9078239340       -1.6654491628  MEMB      40              0.0000000000
      5418        46  POPC      H15X           -6.0446763872       29.9824663188       -2.1846284860  MEMB      40              0.0000000000
      5419        46  POPC      H15Y           -4.6071587089       30.9235912503       -1.7434724237  MEMB      40              0.0000000000
      5420        46  POPC      C316           -6.4417362824       32.0416043014       -2.3098271750  MEMB      40              0.0000000000
      5421        46  POPC      H16X           -5.9202537785       33.0036176551       -2.1177142972  MEMB      40              0.0000000000
      5422        46  POPC      H16Y           -7.5378522759       32.1114671010       -2.1425891809  MEMB      40              0.0000000000
      5423        46  POPC      H16Z           -6.3478553866       31.9614719032       -3.4139502991  MEMB      40              0.0000000000
      5424        47  POPC      N              20.5688394065      -24.0862632240       18.9456624996  MEMB      41              0.0000000000
      5425        47  POPC      C12            19.6200860480      -23.3244017936       17.9437952268  MEMB      41              0.0000000000
      5426        47  POPC      H12A           18.6142352993      -23.2657637325       18.3326729169  MEMB      41              0.0000000000
      5427        47  POPC      H12B           19.6922671495      -23.9260347266       17.0497999517  MEMB      41              0.0000000000
      5428        47  POPC      C13            20.2672856769      -23.5550010519       20.3521183973  MEMB      41              0.0000000000
      5429        47  POPC      H13A           20.6825004933      -24.1576825060       21.1463298055  MEMB      41              0.0000000000
      5430        47  POPC      H13B           20.6784588890      -22.5714048693       20.5249624633  MEMB      41              0.0000000000
      5431        47  POPC      H13C           19.1936500130      -23.4644919868       20.4263777272  MEMB      41              0.0000000000
      5432        47  POPC      C14            20.3491478732      -25.5464756413       18.9672627664  MEMB      41              0.0000000000
      5433        47  POPC      H14A           19.5500765747      -25.9031377658       19.6002535089  MEMB      41              0.0000000000
      5434        47  POPC      H14B           20.0689643530      -25.8677812112       17.9749623403  MEMB      41              0.0000000000
      5435        47  POPC      H14C           21.1886937131      -26.1479537545       19.2831532438  MEMB      41              0.0000000000
      5436        47  POPC      C15            22.0107516888      -23.8785887318       18.6246195387  MEMB      41              0.0000000000
      5437        47  POPC      H15A           22.2297600311      -24.5363954160       17.7965338577  MEMB      41              0.0000000000
      5438        47  POPC      H15B           22.5508869423      -24.2749699051       19.4716945959  MEMB      41              0.0000000000
      5439        47  POPC      H15C           22.1200511719      -22.8145575819       18.4753173139  MEMB      41              0.0000000000
      5440        47  POPC      C11            19.9761475201      -21.7995728127       17.6494794817  MEMB      41              0.0000000000
      5441        47  POPC      H11A           19.3190222249      -21.2925588907       16.9109374838  MEMB      41              0.0000000000
      5442        47  POPC      H11B           21.0160101401      -21.8101115750       17.2584609460  MEMB      41              0.0000000000
      5443        47  POPC      P              18.6709973801      -20.3979153028       19.3748130268  MEMB      41              0.0000000000
      5444        47  POPC      O13            18.4813654932      -19.1770258366       18.5616693129  MEMB      41              0.0000000000
      5445        47  POPC      O14            18.7133030899      -20.2916981780       20.8558981519  MEMB      41              0.0000000000
      5446        47  POPC      O12            20.0854997937      -21.0556906625       18.8654075000  MEMB      41              0.0000000000
      5447        47  POPC      O11            17.6306196504      -21.4393920551       18.8592741044  MEMB      41              0.0000000000
      5448        47  POPC      C1             16.3341281464      -21.2609455516       19.2843539766  MEMB      41              0.0000000000
      5449        47  POPC      HA             16.0887643857      -20.2980819897       19.7813565101  MEMB      41              0.0000000000
      5450        47  POPC      HB             16.0802189937      -21.9763705433       20.0955372520  MEMB      41              0.0000000000
      5451        47  POPC      C2             15.3229193990      -21.5236183999       18.1294026280  MEMB      41              0.0000000000
      5452        47  POPC      HS             14.3950043707      -21.7695160215       18.6887143176  MEMB      41              0.0000000000
      5453        47  POPC      O21            15.7269047399      -22.6106390882       17.3040453263  MEMB      41              0.0000000000
      5454        47  POPC      C21            15.5463992403      -23.8589263845       17.7023084115  MEMB      41              0.0000000000
      5455        47  POPC      O22            15.0294500295      -24.2162742430       18.7225415879  MEMB      41              0.0000000000
      5456        47  POPC      C22            16.0450226187      -24.7733697423       16.6027684215  MEMB      41              0.0000000000
      5457        47  POPC      H2R            15.7215237960      -25.7906436719       16.9107024827  MEMB      41              0.0000000000
      5458        47  POPC      H2S            17.1355027406      -24.5857033832       16.5029914964  MEMB      41              0.0000000000
      5459        47  POPC      C3             15.1686576337      -20.3532136675       17.1796662148  MEMB      41              0.0000000000
      5460        47  POPC      HX             14.6345275508      -19.5655048078       17.7528510965  MEMB      41              0.0000000000
      5461        47  POPC      HY             14.5385884356      -20.7178596823       16.3404005065  MEMB      41              0.0000000000
      5462        47  POPC      O31            16.4518331530      -19.8581356975       16.6727549748  MEMB      41              0.0000000000
      5463        47  POPC      C31            16.3284731558      -19.0439166180       15.6556841018  MEMB      41              0.0000000000
      5464        47  POPC      O32            15.3071573933      -18.7430550475       15.1058213856  MEMB      41              0.0000000000
      5465        47  POPC      C32            17.6856751815      -18.6852915748       15.0545887387  MEMB      41              0.0000000000
      5466        47  POPC      H2X            17.7398790919      -19.2784078689       14.1167208573  MEMB      41              0.0000000000
      5467        47  POPC      H2Y            18.5959651208      -19.0255978309       15.5929985133  MEMB      41              0.0000000000
      5468        47  POPC      C23            15.3870892506      -24.5408700875       15.1713571920  MEMB      41              0.0000000000
      5469        47  POPC      H3R            14.2990121526      -24.7524556139       15.2464652731  MEMB      41              0.0000000000
      5470        47  POPC      H3S            15.6833814679      -25.3737611234       14.4984350961  MEMB      41              0.0000000000
      5471        47  POPC      C24            15.6105526544      -23.2208249822       14.4811095107  MEMB      41              0.0000000000
      5472        47  POPC      H4R            14.9974943468      -22.4506681590       14.9962206183  MEMB      41              0.0000000000
      5473        47  POPC      H4S            14.9884720277      -23.2527223157       13.5611536075  MEMB      41              0.0000000000
      5474        47  POPC      C25            17.0919285181      -22.9169238339       14.1640001032  MEMB      41              0.0000000000
      5475        47  POPC      H5R            17.7679044046      -22.8178981924       15.0401116627  MEMB      41              0.0000000000
      5476        47  POPC      H5S            17.0339869224      -21.8949501572       13.7321049845  MEMB      41              0.0000000000
      5477        47  POPC      C26            17.8096183601      -23.8547604296       13.1795858342  MEMB      41              0.0000000000
      5478        47  POPC      H6R            17.9302358961      -24.8274898612       13.7026250043  MEMB      41              0.0000000000
      5479        47  POPC      H6S            18.8217787274      -23.4452229176       12.9743266793  MEMB      41              0.0000000000
      5480        47  POPC      C27            17.0142847473      -24.1360903279       11.8978755213  MEMB      41              0.0000000000
      5481        47  POPC      H7R            16.3906254006      -23.2448318262       11.6719806436  MEMB      41              0.0000000000
      5482        47  POPC      H7S            16.3021241177      -24.9464610716       12.1632950934  MEMB      41              0.0000000000
      5483        47  POPC      C28            17.7259806095      -24.4537815688       10.4944707111  MEMB      41              0.0000000000
      5484        47  POPC      H8R            18.4917462539      -23.6488968053       10.5036545624  MEMB      41              0.0000000000
      5485        47  POPC      H8S            17.1015076418      -24.3488799898        9.5815902862  MEMB      41              0.0000000000
      5486        47  POPC      C29            18.3466300978      -25.9059370999       10.2823987784  MEMB      41              0.0000000000
      5487        47  POPC      H91            17.6579647643      -26.7377605131       10.4917074291  MEMB      41              0.0000000000
      5488        47  POPC      C210           19.5063070114      -26.2463279784        9.7410231490  MEMB      41              0.0000000000
      5489        47  POPC      H101           19.8283770067      -27.2869033953        9.5878118183  MEMB      41              0.0000000000
      5490        47  POPC      C211           20.5600030065      -25.1825453176        9.2632285339  MEMB      41              0.0000000000
      5491        47  POPC      H11R           21.4060885261      -25.0392512885        9.9688680774  MEMB      41              0.0000000000
      5492        47  POPC      H11S           20.0478150600      -24.1966937830        9.2542128518  MEMB      41              0.0000000000
      5493        47  POPC      C212           21.2075604422      -25.4020167764        7.8284426716  MEMB      41              0.0000000000
      5494        47  POPC      H12R           21.6939077456      -26.3867240483        7.6606961554  MEMB      41              0.0000000000
      5495        47  POPC      H12S           22.0144770346      -24.6400213904        7.7777524823  MEMB      41              0.0000000000
      5496        47  POPC      C213           20.0926960254      -25.2460461504        6.7660228519  MEMB      41              0.0000000000
      5497        47  POPC      H13R           19.5744932012      -24.2650947195        6.8253651526  MEMB      41              0.0000000000
      5498        47  POPC      H13S           19.2866521806      -25.9981826303        6.9035161870  MEMB      41              0.0000000000
      5499        47  POPC      C214           20.5006860365      -25.2024211788        5.2794691576  MEMB      41              0.0000000000
      5500        47  POPC      H14R           19.6038748935      -25.0962425622        4.6323399805  MEMB      41              0.0000000000
      5501        47  POPC      H14S           21.2140863571      -25.9888816635        4.9525740828  MEMB      41              0.0000000000
      5502        47  POPC      C215           21.1646228759      -23.9155127302        4.8751921468  MEMB      41              0.0000000000
      5503        47  POPC      H15R           22.0923376699      -23.8873368495        5.4858252949  MEMB      41              0.0000000000
      5504        47  POPC      H15S           20.5198592622      -23.0719778124        5.2023764190  MEMB      41              0.0000000000
      5505        47  POPC      C216           21.4502289551      -23.6380010170        3.3333921813  MEMB      41              0.0000000000
      5506        47  POPC      H16R           20.4118460779      -23.8086770733        2.9770891820  MEMB      41              0.0000000000
      5507        47  POPC      H16S           22.1511902877      -24.3682256471        2.8754110981  MEMB      41              0.0000000000
      5508        47  POPC      C217           22.1130669362      -22.2267886375        2.9768122666  MEMB      41              0.0000000000
      5509        47  POPC      H17R           23.0032936266      -22.0826838758        3.6256965754  MEMB      41              0.0000000000
      5510        47  POPC      H17S           21.3512293337      -21.5204165701        3.3704654653  MEMB      41              0.0000000000
      5511        47  POPC      C218           22.3079085473      -21.7647590549        1.5148049942  MEMB      41              0.0000000000
      5512        47  POPC      H18R           22.9701033167      -20.8740460422        1.5642969429  MEMB      41              0.0000000000
      5513        47  POPC      H18S           21.3065585300      -21.5690404498        1.0751288774  MEMB      41              0.0000000000
      5514        47  POPC      H18T           22.7275989091      -22.4900745296        0.7853525212  MEMB      41              0.0000000000
      5515        47  POPC      C33            17.7760259692      -17.2251677204       14.7228840602  MEMB      41              0.0000000000
      5516        47  POPC      H3X            17.9662858131      -16.5566507846       15.5896058522  MEMB      41              0.0000000000
      5517        47  POPC      H3Y            16.8733323762      -16.7314480461       14.3037109034  MEMB      41              0.0000000000
      5518        47  POPC      C34            18.7723813406      -16.9674406523       13.6770795580  MEMB      41              0.0000000000
      5519        47  POPC      H4X            19.4849849472      -17.7889959317       13.4500018036  MEMB      41              0.0000000000
      5520        47  POPC      H4Y            19.3229709619      -16.1165433317       14.1322121695  MEMB      41              0.0000000000
      5521        47  POPC      C35            18.2775789331      -16.5719183779       12.3158774311  MEMB      41              0.0000000000
      5522        47  POPC      H5X            19.1676849660      -16.3167037429       11.7019571369  MEMB      41              0.0000000000
      5523        47  POPC      H5Y            17.7855455495      -15.5923160758       12.4964425179  MEMB      41              0.0000000000
      5524        47  POPC      C36            17.4307464808      -17.5081919580       11.4499614941  MEMB      41              0.0000000000
      5525        47  POPC      H6X            17.0986168739      -16.9813044388       10.5299614081  MEMB      41              0.0000000000
      5526        47  POPC      H6Y            16.5161170506      -17.7886486139       12.0148671562  MEMB      41              0.0000000000
      5527        47  POPC      C37            18.3307721518      -18.6970929466       10.9561425227  MEMB      41              0.0000000000
      5528        47  POPC      H7X            18.1714634547      -19.5681792578       11.6270745294  MEMB      41              0.0000000000
      5529        47  POPC      H7Y            19.3738318742      -18.3176483769       11.0048169084  MEMB      41              0.0000000000
      5530        47  POPC      C38            18.0118670285      -19.1350026860        9.4701735935  MEMB      41              0.0000000000
      5531        47  POPC      H8X            18.3593075235      -18.3415331205        8.7744633903  MEMB      41              0.0000000000
      5532        47  POPC      H8Y            16.9038925121      -19.1146211158        9.3908117169  MEMB      41              0.0000000000
      5533        47  POPC      C39            18.6595701862      -20.4665207471        9.1536010426  MEMB      41              0.0000000000
      5534        47  POPC      H9X            18.4713320740      -21.1451067879       10.0129078216  MEMB      41              0.0000000000
      5535        47  POPC      H9Y            19.7528975277      -20.2697924171        9.1695533543  MEMB      41              0.0000000000
      5536        47  POPC      C310           18.1997258981      -21.1268249070        7.9066193480  MEMB      41              0.0000000000
      5537        47  POPC      H10X           18.8947541983      -21.9699708416        7.7057173560  MEMB      41              0.0000000000
      5538        47  POPC      H10Y           18.2211518439      -20.3603843328        7.1026102350  MEMB      41              0.0000000000
      5539        47  POPC      C311           16.7856773789      -21.6694506452        7.9428236823  MEMB      41              0.0000000000
      5540        47  POPC      H11X           15.8933723210      -21.0303279947        7.7706754473  MEMB      41              0.0000000000
      5541        47  POPC      H11Y           16.6583957648      -22.1260112598        8.9476480328  MEMB      41              0.0000000000
      5542        47  POPC      C312           16.6766116378      -22.8511432418        6.8895813857  MEMB      41              0.0000000000
      5543        47  POPC      H12X           15.7190244938      -23.4008544159        7.0127298885  MEMB      41              0.0000000000
      5544        47  POPC      H12Y           17.4646997273      -23.5944883762        7.1359061813  MEMB      41              0.0000000000
      5545        47  POPC      C313           16.9128257140      -22.2262610102        5.5003884090  MEMB      41              0.0000000000
      5546        47  POPC      H13X           17.9564616730      -21.8463457222        5.4719396864  MEMB      41              0.0000000000
      5547        47  POPC      H13Y           16.2916446167      -21.3097840799        5.4080572576  MEMB      41              0.0000000000
      5548        47  POPC      C314           16.5596682113      -23.2176007179        4.4271074089  MEMB      41              0.0000000000
      5549        47  POPC      H14X           15.5528516191      -23.5864402993        4.7179658846  MEMB      41              0.0000000000
      5550        47  POPC      H14Y           17.2805916964      -24.0569283134        4.5277031828  MEMB      41              0.0000000000
      5551        47  POPC      C315           16.8349738055      -22.5959243098        3.0509351586  MEMB      41              0.0000000000
      5552        47  POPC      H15X           17.8837396534      -22.2416113978        3.1451340452  MEMB      41              0.0000000000
      5553        47  POPC      H15Y           16.1615318014      -21.7191517497        2.9410869360  MEMB      41              0.0000000000
      5554        47  POPC      C316           16.6458691843      -23.5000820818        1.8558316332  MEMB      41              0.0000000000
      5555        47  POPC      H16X           15.5890497281      -23.5302219570        1.5144459290  MEMB      41              0.0000000000
      5556        47  POPC      H16Y           16.9882910195      -24.5357414265        2.0667303196  MEMB      41              0.0000000000
      5557        47  POPC      H16Z           17.2545225667      -23.0588512667        1.0377992258  MEMB      41              0.0000000000
      5558        48  POPC      N             -25.1213639019      -13.4136916945       17.5511954229  MEMB      42              0.0000000000
      5559        48  POPC      C12           -25.5569251189      -12.0932292052       18.1637677411  MEMB      42              0.0000000000
      5560        48  POPC      H12A          -26.5014377251      -11.8153642067       17.7198229808  MEMB      42              0.0000000000
      5561        48  POPC      H12B          -24.8216501729      -11.3905817366       17.8003707660  MEMB      42              0.0000000000
      5562        48  POPC      C13           -23.8997281621      -13.9455880049       18.3547343395  MEMB      42              0.0000000000
      5563        48  POPC      H13A          -23.9804796281      -15.0225490346       18.3605911592  MEMB      42              0.0000000000
      5564        48  POPC      H13B          -23.0548428680      -13.5048825356       17.8464550136  MEMB      42              0.0000000000
      5565        48  POPC      H13C          -23.9217597266      -13.6734357145       19.3996495536  MEMB      42              0.0000000000
      5566        48  POPC      C14           -26.2655480808      -14.4217839774       17.6034189558  MEMB      42              0.0000000000
      5567        48  POPC      H14A          -26.3953638926      -14.8676409603       18.5784878967  MEMB      42              0.0000000000
      5568        48  POPC      H14B          -27.1981343087      -13.9120515497       17.4114398266  MEMB      42              0.0000000000
      5569        48  POPC      H14C          -26.1131511314      -15.2933603884       16.9841214834  MEMB      42              0.0000000000
      5570        48  POPC      C15           -24.7692354414      -13.1669869617       16.0773957366  MEMB      42              0.0000000000
      5571        48  POPC      H15A          -24.3858959571      -14.1095262553       15.7153590005  MEMB      42              0.0000000000
      5572        48  POPC      H15B          -24.1357870658      -12.2991292386       15.9680063146  MEMB      42              0.0000000000
      5573        48  POPC      H15C          -25.6797388022      -12.9142159873       15.5544325781  MEMB      42              0.0000000000
      5574        48  POPC      C11           -25.9116860178      -12.0082539095       19.6665902977  MEMB      42              0.0000000000
      5575        48  POPC      H11A          -26.2851171400      -10.9720035581       19.8116952226  MEMB      42              0.0000000000
      5576        48  POPC      H11B          -25.0517403065      -12.0101768190       20.3700181395  MEMB      42              0.0000000000
      5577        48  POPC      P             -28.3149900471      -12.6206997238       20.4077525489  MEMB      42              0.0000000000
      5578        48  POPC      O13           -28.4401014678      -11.6872461607       21.5976394456  MEMB      42              0.0000000000
      5579        48  POPC      O14           -29.1350717938      -13.8304362585       20.3709910918  MEMB      42              0.0000000000
      5580        48  POPC      O12           -26.7856980317      -12.9887246583       20.1788932125  MEMB      42              0.0000000000
      5581        48  POPC      O11           -28.6079600561      -11.8854708018       19.0276212346  MEMB      42              0.0000000000
      5582        48  POPC      C1            -29.7350645118      -11.1157449869       19.0469066819  MEMB      42              0.0000000000
      5583        48  POPC      HA            -29.5193998743      -10.1608563710       19.5722614123  MEMB      42              0.0000000000
      5584        48  POPC      HB            -30.6209234702      -11.6858443454       19.3998396561  MEMB      42              0.0000000000
      5585        48  POPC      C2            -30.0651385902      -10.7486863333       17.6385230753  MEMB      42              0.0000000000
      5586        48  POPC      HS            -31.1562099658      -10.6258968519       17.4687968120  MEMB      42              0.0000000000
      5587        48  POPC      O21           -29.6641202181      -11.7562597146       16.6863464125  MEMB      42              0.0000000000
      5588        48  POPC      C21           -30.5042796555      -12.7595185230       16.3689854089  MEMB      42              0.0000000000
      5589        48  POPC      O22           -31.5682608133      -13.0093798348       16.9727212419  MEMB      42              0.0000000000
      5590        48  POPC      C22           -29.9714870641      -13.5434346688       15.2141925482  MEMB      42              0.0000000000
      5591        48  POPC      H2R           -29.3977153090      -14.4516157066       15.4975904485  MEMB      42              0.0000000000
      5592        48  POPC      H2S           -29.3346837891      -12.8865573202       14.5838634228  MEMB      42              0.0000000000
      5593        48  POPC      C3            -29.4903786267       -9.3952089745       17.2021065602  MEMB      42              0.0000000000
      5594        48  POPC      HX            -29.6725439627       -8.6730851849       18.0265300512  MEMB      42              0.0000000000
      5595        48  POPC      HY            -29.9505914145       -8.9859962596       16.2774066968  MEMB      42              0.0000000000
      5596        48  POPC      O31           -28.0691773573       -9.3891093025       16.9609242511  MEMB      42              0.0000000000
      5597        48  POPC      C31           -27.5677837883       -8.1982078745       16.5454651178  MEMB      42              0.0000000000
      5598        48  POPC      O32           -28.2485183686       -7.2567714633       16.2274572337  MEMB      42              0.0000000000
      5599        48  POPC      C32           -25.9964336279       -8.3215580991       16.3351243174  MEMB      42              0.0000000000
      5600        48  POPC      H2X           -25.5830142489       -9.0554429675       17.0595679795  MEMB      42              0.0000000000
      5601        48  POPC      H2Y           -25.4348559966       -7.3772035061       16.4998842904  MEMB      42              0.0000000000
      5602        48  POPC      C23           -31.1156125977      -14.0819910239       14.2448094591  MEMB      42              0.0000000000
      5603        48  POPC      H3R           -31.6201131041      -13.1893245780       13.8170866578  MEMB      42              0.0000000000
      5604        48  POPC      H3S           -31.9159552596      -14.7002582418       14.7047203206  MEMB      42              0.0000000000
      5605        48  POPC      C24           -30.6593621334      -14.9166634333       13.0740830407  MEMB      42              0.0000000000
      5606        48  POPC      H4R           -31.5410651623      -15.0818939628       12.4186292257  MEMB      42              0.0000000000
      5607        48  POPC      H4S           -30.2018056400      -15.9013656486       13.3092943564  MEMB      42              0.0000000000
      5608        48  POPC      C25           -29.7473948604      -14.2599343009       12.0915909917  MEMB      42              0.0000000000
      5609        48  POPC      H5R           -28.7137043909      -14.2594985089       12.4987825573  MEMB      42              0.0000000000
      5610        48  POPC      H5S           -30.1496604349      -13.2762947393       11.7676209921  MEMB      42              0.0000000000
      5611        48  POPC      C26           -29.5835091832      -15.0631627208       10.8057833607  MEMB      42              0.0000000000
      5612        48  POPC      H6R           -30.5647196021      -15.5110299950       10.5393952721  MEMB      42              0.0000000000
      5613        48  POPC      H6S           -28.7696425807      -15.8085804775       10.9334335924  MEMB      42              0.0000000000
      5614        48  POPC      C27           -29.3933337561      -14.1802574224        9.5692338406  MEMB      42              0.0000000000
      5615        48  POPC      H7R           -28.7144599050      -13.3429216299        9.8381588040  MEMB      42              0.0000000000
      5616        48  POPC      H7S           -30.3061037533      -13.7652178894        9.0907845519  MEMB      42              0.0000000000
      5617        48  POPC      C28           -28.6480772555      -14.9240391818        8.4170609531  MEMB      42              0.0000000000
      5618        48  POPC      H8R           -27.6460019194      -15.2511720420        8.7679874736  MEMB      42              0.0000000000
      5619        48  POPC      H8S           -28.4361986444      -14.1409872944        7.6579446201  MEMB      42              0.0000000000
      5620        48  POPC      C29           -29.3850684505      -16.0257442253        7.6739754583  MEMB      42              0.0000000000
      5621        48  POPC      H91           -29.0238262726      -17.0048280615        8.0216807195  MEMB      42              0.0000000000
      5622        48  POPC      C210          -30.3539680377      -15.9467755294        6.6856404380  MEMB      42              0.0000000000
      5623        48  POPC      H101          -30.6921187091      -16.9014674687        6.2564360823  MEMB      42              0.0000000000
      5624        48  POPC      C211          -30.8977052848      -14.6379312591        6.1166745649  MEMB      42              0.0000000000
      5625        48  POPC      H11R          -30.4239983026      -13.7781664015        6.6369895771  MEMB      42              0.0000000000
      5626        48  POPC      H11S          -32.0074564130      -14.5913068029        6.1411556918  MEMB      42              0.0000000000
      5627        48  POPC      C212          -30.5230857313      -14.5066565168        4.6059145034  MEMB      42              0.0000000000
      5628        48  POPC      H12R          -29.4215738081      -14.5292108516        4.4627925750  MEMB      42              0.0000000000
      5629        48  POPC      H12S          -30.8592800386      -13.5242631177        4.2106968946  MEMB      42              0.0000000000
      5630        48  POPC      C213          -31.1500579591      -15.6391572991        3.7184995491  MEMB      42              0.0000000000
      5631        48  POPC      H13R          -32.2419452410      -15.5360903741        3.8959253407  MEMB      42              0.0000000000
      5632        48  POPC      H13S          -30.8828524243      -16.6442540457        4.1092714684  MEMB      42              0.0000000000
      5633        48  POPC      C214          -30.6984638382      -15.5865662723        2.2454538133  MEMB      42              0.0000000000
      5634        48  POPC      H14R          -31.0776958330      -16.5167368682        1.7708102636  MEMB      42              0.0000000000
      5635        48  POPC      H14S          -29.6206683472      -15.8438333216        2.1648823251  MEMB      42              0.0000000000
      5636        48  POPC      C215          -31.1024878015      -14.3698902289        1.4457713045  MEMB      42              0.0000000000
      5637        48  POPC      H15R          -30.5588555842      -13.4565113467        1.7690719293  MEMB      42              0.0000000000
      5638        48  POPC      H15S          -32.1777289104      -14.0906587294        1.4601980716  MEMB      42              0.0000000000
      5639        48  POPC      C216          -30.8534173326      -14.4676200008       -0.0664520979  MEMB      42              0.0000000000
      5640        48  POPC      H16R          -31.3946653652      -15.2822652624       -0.5934487506  MEMB      42              0.0000000000
      5641        48  POPC      H16S          -29.7976807033      -14.8054347906       -0.1414382759  MEMB      42              0.0000000000
      5642        48  POPC      C217          -31.0932896700      -13.2115768240       -0.9006676981  MEMB      42              0.0000000000
      5643        48  POPC      H17R          -32.1919444407      -13.0465123090       -0.9063151884  MEMB      42              0.0000000000
      5644        48  POPC      H17S          -30.7855307383      -13.1821752541       -1.9677858602  MEMB      42              0.0000000000
      5645        48  POPC      C218          -30.6281759192      -11.7927854728       -0.4486880115  MEMB      42              0.0000000000
      5646        48  POPC      H18R          -29.5454752714      -11.7352467917       -0.2062648725  MEMB      42              0.0000000000
      5647        48  POPC      H18S          -31.2129808348      -11.4635579807        0.4367117341  MEMB      42              0.0000000000
      5648        48  POPC      H18T          -30.8508619193      -11.0818976352       -1.2729262844  MEMB      42              0.0000000000
      5649        48  POPC      C33           -25.6420331692       -8.7753154110       14.8893610133  MEMB      42              0.0000000000
      5650        48  POPC      H3X           -24.5614835924       -9.0309341493       14.9266800109  MEMB      42              0.0000000000
      5651        48  POPC      H3Y           -25.8663476954       -8.0125562052       14.1133439264  MEMB      42              0.0000000000
      5652        48  POPC      C34           -26.2725828891      -10.1656815876       14.6091363013  MEMB      42              0.0000000000
      5653        48  POPC      H4X           -26.3407156375      -10.6516837101       15.6058712405  MEMB      42              0.0000000000
      5654        48  POPC      H4Y           -25.5185752744      -10.8063571367       14.1038360893  MEMB      42              0.0000000000
      5655        48  POPC      C35           -27.6315563695      -10.1873486206       13.8492199383  MEMB      42              0.0000000000
      5656        48  POPC      H5X           -27.9081097922       -9.1117699426       13.8180810630  MEMB      42              0.0000000000
      5657        48  POPC      H5Y           -28.2859001100      -10.6751610152       14.6030067057  MEMB      42              0.0000000000
      5658        48  POPC      C36           -27.6342837551      -11.0434867531       12.5155190120  MEMB      42              0.0000000000
      5659        48  POPC      H6X           -28.6815000050      -11.3454374162       12.2999156061  MEMB      42              0.0000000000
      5660        48  POPC      H6Y           -26.9166939667      -11.8821951981       12.6418291006  MEMB      42              0.0000000000
      5661        48  POPC      C37           -27.1886966786      -10.0812839467       11.2962010012  MEMB      42              0.0000000000
      5662        48  POPC      H7X           -26.2139275299       -9.6295540307       11.5791964808  MEMB      42              0.0000000000
      5663        48  POPC      H7Y           -27.9985460920       -9.3214233567       11.3290197700  MEMB      42              0.0000000000
      5664        48  POPC      C38           -27.0556088996      -10.7494076786        9.9608312411  MEMB      42              0.0000000000
      5665        48  POPC      H8X           -28.0204672648      -11.1239795180        9.5570185351  MEMB      42              0.0000000000
      5666        48  POPC      H8Y           -26.5073305150      -11.7147752051       10.0029903587  MEMB      42              0.0000000000
      5667        48  POPC      C39           -26.5598008189       -9.8966579542        8.8173378100  MEMB      42              0.0000000000
      5668        48  POPC      H9X           -25.4854357778       -9.6400873380        8.9366342890  MEMB      42              0.0000000000
      5669        48  POPC      H9Y           -27.0561850267       -8.9033996960        8.7804340287  MEMB      42              0.0000000000
      5670        48  POPC      C310          -26.7576700307      -10.6307135215        7.4470720302  MEMB      42              0.0000000000
      5671        48  POPC      H10X          -27.8391143697      -10.8366874221        7.2974941225  MEMB      42              0.0000000000
      5672        48  POPC      H10Y          -26.3570698974      -11.6555343038        7.6006382156  MEMB      42              0.0000000000
      5673        48  POPC      C311          -26.2082897199       -9.9159695102        6.1874682730  MEMB      42              0.0000000000
      5674        48  POPC      H11X          -25.1204004275       -9.7214043883        6.3013203058  MEMB      42              0.0000000000
      5675        48  POPC      H11Y          -26.8000368381       -8.9760030547        6.2123601499  MEMB      42              0.0000000000
      5676        48  POPC      C312          -26.4079395723      -10.5540279990        4.7984550777  MEMB      42              0.0000000000
      5677        48  POPC      H12X          -25.9411623706      -11.5547547877        4.9208719396  MEMB      42              0.0000000000
      5678        48  POPC      H12Y          -25.9870801416       -9.8690678798        4.0316245907  MEMB      42              0.0000000000
      5679        48  POPC      C313          -27.8606700673      -10.8997613322        4.3367392125  MEMB      42              0.0000000000
      5680        48  POPC      H13X          -28.0910717175       -9.8990324355        3.9127365871  MEMB      42              0.0000000000
      5681        48  POPC      H13Y          -28.4696087749      -11.1364935628        5.2353340572  MEMB      42              0.0000000000
      5682        48  POPC      C314          -27.9290053894      -11.9252475010        3.1851516091  MEMB      42              0.0000000000
      5683        48  POPC      H14X          -28.9186844816      -12.0379842660        2.6930676219  MEMB      42              0.0000000000
      5684        48  POPC      H14Y          -27.6701845488      -12.8884854384        3.6745453844  MEMB      42              0.0000000000
      5685        48  POPC      C315          -26.8022416850      -11.8668106088        2.0987617155  MEMB      42              0.0000000000
      5686        48  POPC      H15X          -25.8333818558      -11.7825647320        2.6359152166  MEMB      42              0.0000000000
      5687        48  POPC      H15Y          -26.9916709783      -10.9240928310        1.5422362542  MEMB      42              0.0000000000
      5688        48  POPC      C316          -26.7765495526      -13.0529534433        1.1227419250  MEMB      42              0.0000000000
      5689        48  POPC      H16X          -27.7523275651      -13.0539915478        0.5915380336  MEMB      42              0.0000000000
      5690        48  POPC      H16Y          -26.7237285968      -14.0531789529        1.6034489275  MEMB      42              0.0000000000
      5691        48  POPC      H16Z          -25.8949612446      -12.9822572934        0.4503396584  MEMB      42              0.0000000000
      5692        49  POPC      N              27.5529024077      -16.6785828320       20.2012978933  MEMB      43              0.0000000000
      5693        49  POPC      C12            26.5709283580      -17.6483454214       19.6437443121  MEMB      43              0.0000000000
      5694        49  POPC      H12A           26.4976665079      -18.4985818526       20.3056587565  MEMB      43              0.0000000000
      5695        49  POPC      H12B           26.8799993077      -18.0332038995       18.6831407939  MEMB      43              0.0000000000
      5696        49  POPC      C13            27.1003723862      -16.2987121895       21.5850672709  MEMB      43              0.0000000000
      5697        49  POPC      H13A           26.1864611192      -15.7389355107       21.4515900688  MEMB      43              0.0000000000
      5698        49  POPC      H13B           26.7926249530      -17.1296572618       22.2024989696  MEMB      43              0.0000000000
      5699        49  POPC      H13C           27.7955216997      -15.5750803328       21.9844726368  MEMB      43              0.0000000000
      5700        49  POPC      C14            28.8231222739      -17.4638437787       20.3478539472  MEMB      43              0.0000000000
      5701        49  POPC      H14A           29.6761069436      -16.8057955142       20.4239434880  MEMB      43              0.0000000000
      5702        49  POPC      H14B           28.7802691701      -18.1061660068       21.2150252340  MEMB      43              0.0000000000
      5703        49  POPC      H14C           28.8546958864      -18.0353119595       19.4319788634  MEMB      43              0.0000000000
      5704        49  POPC      C15            27.8763474341      -15.5707759534       19.2621819712  MEMB      43              0.0000000000
      5705        49  POPC      H15A           27.9289635048      -16.0180806157       18.2805761132  MEMB      43              0.0000000000
      5706        49  POPC      H15B           28.8357506113      -15.3116169490       19.6850080708  MEMB      43              0.0000000000
      5707        49  POPC      H15C           27.1989683344      -14.7329779086       19.1870015257  MEMB      43              0.0000000000
      5708        49  POPC      C11            25.1045181617      -17.1573761670       19.4597487556  MEMB      43              0.0000000000
      5709        49  POPC      H11A           24.8056862614      -16.8697146600       20.4904142186  MEMB      43              0.0000000000
      5710        49  POPC      H11B           24.3700650907      -17.9502048119       19.2022172093  MEMB      43              0.0000000000
      5711        49  POPC      P              23.8568605964      -15.5846144557       17.6888935927  MEMB      43              0.0000000000
      5712        49  POPC      O13            23.9260785743      -14.0802784039       17.7202435079  MEMB      43              0.0000000000
      5713        49  POPC      O14            22.6746136338      -16.2474667511       18.2986834322  MEMB      43              0.0000000000
      5714        49  POPC      O12            25.1153787457      -16.0116398049       18.5622027080  MEMB      43              0.0000000000
      5715        49  POPC      O11            24.0166260255      -16.1636435048       16.2300826036  MEMB      43              0.0000000000
      5716        49  POPC      C1             25.2980596566      -16.7488992300       15.9101679783  MEMB      43              0.0000000000
      5717        49  POPC      HA             25.2279842354      -17.2864386840       14.9403939175  MEMB      43              0.0000000000
      5718        49  POPC      HB             25.4924735211      -17.5582526765       16.6460153633  MEMB      43              0.0000000000
      5719        49  POPC      C2             26.3965273898      -15.6109128887       15.6885772688  MEMB      43              0.0000000000
      5720        49  POPC      HS             26.7508813972      -15.3600134963       16.7112227452  MEMB      43              0.0000000000
      5721        49  POPC      O21            25.7616781843      -14.5130638518       14.9983055718  MEMB      43              0.0000000000
      5722        49  POPC      C21            26.3623124274      -13.3476649290       14.9507608269  MEMB      43              0.0000000000
      5723        49  POPC      O22            27.3583826644      -12.9190636011       15.5104109528  MEMB      43              0.0000000000
      5724        49  POPC      C22            25.5427810041      -12.3558084702       14.0431372831  MEMB      43              0.0000000000
      5725        49  POPC      H2R            25.3680572601      -11.3844464599       14.5532827786  MEMB      43              0.0000000000
      5726        49  POPC      H2S            24.5045466606      -12.7154039583       13.8785724442  MEMB      43              0.0000000000
      5727        49  POPC      C3             27.6551410590      -16.1045750730       14.8656461546  MEMB      43              0.0000000000
      5728        49  POPC      HX             28.1398705987      -16.9813842408       15.3458170201  MEMB      43              0.0000000000
      5729        49  POPC      HY             28.4199843953      -15.2999555894       14.8217888665  MEMB      43              0.0000000000
      5730        49  POPC      O31            27.2588811249      -16.5022188983       13.5298055936  MEMB      43              0.0000000000
      5731        49  POPC      C31            28.2398438871      -16.3785772739       12.5447887761  MEMB      43              0.0000000000
      5732        49  POPC      O32            29.3656998892      -15.9420540111       12.7080254890  MEMB      43              0.0000000000
      5733        49  POPC      C32            27.6672585357      -17.0450781545       11.2873669587  MEMB      43              0.0000000000
      5734        49  POPC      H2X            26.7723958152      -16.5227412859       10.8864856505  MEMB      43              0.0000000000
      5735        49  POPC      H2Y            27.1897514945      -18.0180647762       11.5315085221  MEMB      43              0.0000000000
      5736        49  POPC      C23            26.1239255353      -12.2090473426       12.6744638874  MEMB      43              0.0000000000
      5737        49  POPC      H3R            27.1998967131      -11.9867027232       12.8392961406  MEMB      43              0.0000000000
      5738        49  POPC      H3S            25.6913277494      -11.2243343458       12.3960385024  MEMB      43              0.0000000000
      5739        49  POPC      C24            25.8204070503      -13.1676947692       11.5368063402  MEMB      43              0.0000000000
      5740        49  POPC      H4R            25.9773176554      -14.2314207155       11.8164260330  MEMB      43              0.0000000000
      5741        49  POPC      H4S            26.6850411456      -13.0063880825       10.8580507756  MEMB      43              0.0000000000
      5742        49  POPC      C25            24.6349433285      -12.7366441293       10.6515062733  MEMB      43              0.0000000000
      5743        49  POPC      H5R            24.9468151420      -12.4094046596        9.6366309153  MEMB      43              0.0000000000
      5744        49  POPC      H5S            24.0494067189      -11.8853699072       11.0599186316  MEMB      43              0.0000000000
      5745        49  POPC      C26            23.5544187270      -13.8006245317       10.3328922024  MEMB      43              0.0000000000
      5746        49  POPC      H6R            22.7342427244      -13.3343115594        9.7462191739  MEMB      43              0.0000000000
      5747        49  POPC      H6S            23.0650665568      -14.1012496842       11.2839338725  MEMB      43              0.0000000000
      5748        49  POPC      C27            24.1335467759      -15.0503876351        9.5579619595  MEMB      43              0.0000000000
      5749        49  POPC      H7R            25.0015292491      -15.4379668045       10.1330358366  MEMB      43              0.0000000000
      5750        49  POPC      H7S            24.4845678375      -14.7849302532        8.5378448778  MEMB      43              0.0000000000
      5751        49  POPC      C28            23.1703383050      -16.2315589856        9.3144174418  MEMB      43              0.0000000000
      5752        49  POPC      H8R            22.9102421798      -16.6728209788       10.3002968936  MEMB      43              0.0000000000
      5753        49  POPC      H8S            23.7788276022      -17.0067565915        8.8014548930  MEMB      43              0.0000000000
      5754        49  POPC      C29            21.8529870720      -15.7421370253        8.6872252434  MEMB      43              0.0000000000
      5755        49  POPC      H91            21.3604467815      -15.0062787087        9.3398484028  MEMB      43              0.0000000000
      5756        49  POPC      C210           21.3880954221      -16.2442919267        7.5810199348  MEMB      43              0.0000000000
      5757        49  POPC      H101           20.4072366094      -15.9643586224        7.1692514938  MEMB      43              0.0000000000
      5758        49  POPC      C211           22.0908510397      -17.3540182424        6.7913500290  MEMB      43              0.0000000000
      5759        49  POPC      H11R           21.2396640354      -17.9025095659        6.3342284176  MEMB      43              0.0000000000
      5760        49  POPC      H11S           22.7037148233      -18.0322185425        7.4228268989  MEMB      43              0.0000000000
      5761        49  POPC      C212           22.9586754845      -16.6570496953        5.7819141022  MEMB      43              0.0000000000
      5762        49  POPC      H12R           23.6573228602      -16.0272688948        6.3731747447  MEMB      43              0.0000000000
      5763        49  POPC      H12S           22.3690503141      -16.0170104524        5.0912528185  MEMB      43              0.0000000000
      5764        49  POPC      C213           23.6705407363      -17.7149169440        4.9044582091  MEMB      43              0.0000000000
      5765        49  POPC      H13R           22.8601312554      -18.1829600006        4.3057151091  MEMB      43              0.0000000000
      5766        49  POPC      H13S           24.1880124523      -18.4109772557        5.5987524479  MEMB      43              0.0000000000
      5767        49  POPC      C214           24.6746427816      -17.2025015722        3.8751334210  MEMB      43              0.0000000000
      5768        49  POPC      H14R           25.4812475357      -16.6591984374        4.4122842648  MEMB      43              0.0000000000
      5769        49  POPC      H14S           24.1023887570      -16.4778136211        3.2573357975  MEMB      43              0.0000000000
      5770        49  POPC      C215           25.4106902883      -18.4043701319        3.1530771055  MEMB      43              0.0000000000
      5771        49  POPC      H15R           25.8154271596      -19.0832837741        3.9338362974  MEMB      43              0.0000000000
      5772        49  POPC      H15S           26.3529763116      -18.0827974505        2.6601174195  MEMB      43              0.0000000000
      5773        49  POPC      C216           24.7572181452      -19.2030585997        1.9672184958  MEMB      43              0.0000000000
      5774        49  POPC      H16R           23.7113179698      -19.3906087624        2.2916230509  MEMB      43              0.0000000000
      5775        49  POPC      H16S           25.2736558613      -20.1596757583        1.7380967114  MEMB      43              0.0000000000
      5776        49  POPC      C217           24.7211483291      -18.4035358061        0.6808504584  MEMB      43              0.0000000000
      5777        49  POPC      H17R           25.7542764796      -18.0855468251        0.4242371921  MEMB      43              0.0000000000
      5778        49  POPC      H17S           24.0226540186      -17.5462856659        0.7883139551  MEMB      43              0.0000000000
      5779        49  POPC      C218           24.2396890401      -19.1380643968       -0.6462442651  MEMB      43              0.0000000000
      5780        49  POPC      H18R           24.8017349560      -20.0334212556       -0.9879482405  MEMB      43              0.0000000000
      5781        49  POPC      H18S           24.4143174274      -18.5021034879       -1.5403244993  MEMB      43              0.0000000000
      5782        49  POPC      H18T           23.1629148414      -19.3708065618       -0.5023372814  MEMB      43              0.0000000000
      5783        49  POPC      C33            28.7867873162      -17.1575474622       10.1161699710  MEMB      43              0.0000000000
      5784        49  POPC      H3X            28.3912457137      -17.8943362088        9.3847262946  MEMB      43              0.0000000000
      5785        49  POPC      H3Y            29.7354380137      -17.5606200360       10.5307966316  MEMB      43              0.0000000000
      5786        49  POPC      C34            29.0547731330      -15.8475499521        9.3211691829  MEMB      43              0.0000000000
      5787        49  POPC      H4X            29.8735972181      -15.3156723083        9.8512203155  MEMB      43              0.0000000000
      5788        49  POPC      H4Y            28.1074186840      -15.2727985266        9.2405386021  MEMB      43              0.0000000000
      5789        49  POPC      C35            29.5943198695      -16.0530799697        7.8469062433  MEMB      43              0.0000000000
      5790        49  POPC      H5X            28.9326177291      -16.7013630717        7.2335550120  MEMB      43              0.0000000000
      5791        49  POPC      H5Y            30.6392913355      -16.4241086128        7.9154156797  MEMB      43              0.0000000000
      5792        49  POPC      C36            29.7548603273      -14.8350592200        6.9038812618  MEMB      43              0.0000000000
      5793        49  POPC      H6X            30.2363435812      -15.0583443375        5.9278492300  MEMB      43              0.0000000000
      5794        49  POPC      H6Y            30.5113699199      -14.1304661857        7.3107751327  MEMB      43              0.0000000000
      5795        49  POPC      C37            28.4716654011      -14.0431511138        6.7512895061  MEMB      43              0.0000000000
      5796        49  POPC      H7X            28.2058826464      -13.6101894417        7.7393305319  MEMB      43              0.0000000000
      5797        49  POPC      H7Y            27.6093670911      -14.6756845526        6.4501844844  MEMB      43              0.0000000000
      5798        49  POPC      C38            28.6137198456      -12.8260383748        5.8518653204  MEMB      43              0.0000000000
      5799        49  POPC      H8X            29.5386111713      -12.2216198502        5.9683795910  MEMB      43              0.0000000000
      5800        49  POPC      H8Y            27.9637633426      -12.0230608659        6.2606500765  MEMB      43              0.0000000000
      5801        49  POPC      C39            28.3117154450      -13.2045033907        4.3478306949  MEMB      43              0.0000000000
      5802        49  POPC      H9X            28.2959366528      -12.1748692104        3.9307861226  MEMB      43              0.0000000000
      5803        49  POPC      H9Y            27.2995539526      -13.5239263062        4.0194722009  MEMB      43              0.0000000000
      5804        49  POPC      C310           29.3005400708      -13.9764382419        3.5052365418  MEMB      43              0.0000000000
      5805        49  POPC      H10X           29.2128420974      -15.0794999039        3.6046594790  MEMB      43              0.0000000000
      5806        49  POPC      H10Y           30.3017882871      -13.8383979216        3.9665041352  MEMB      43              0.0000000000
      5807        49  POPC      C311           29.2125324787      -13.5105668349        2.0451379032  MEMB      43              0.0000000000
      5808        49  POPC      H11X           29.8513838429      -14.1289786252        1.3789889801  MEMB      43              0.0000000000
      5809        49  POPC      H11Y           29.6278022689      -12.4802856294        2.0253254547  MEMB      43              0.0000000000
      5810        49  POPC      C312           27.9122543918      -13.4346464259        1.2860467288  MEMB      43              0.0000000000
      5811        49  POPC      H12X           28.1944896394      -13.1061696990        0.2629303624  MEMB      43              0.0000000000
      5812        49  POPC      H12Y           27.3287875668      -12.6526055173        1.8173656573  MEMB      43              0.0000000000
      5813        49  POPC      C313           27.1349661548      -14.8006233208        1.1244546813  MEMB      43              0.0000000000
      5814        49  POPC      H13X           27.0624431504      -15.3472824370        2.0889363293  MEMB      43              0.0000000000
      5815        49  POPC      H13Y           27.6689266649      -15.5440547563        0.4947583813  MEMB      43              0.0000000000
      5816        49  POPC      C314           25.6863504400      -14.5645104839        0.6596331039  MEMB      43              0.0000000000
      5817        49  POPC      H14X           25.1917366194      -13.6616852088        1.0774658875  MEMB      43              0.0000000000
      5818        49  POPC      H14Y           25.1407628518      -15.5068934284        0.8800168978  MEMB      43              0.0000000000
      5819        49  POPC      C315           25.6165406552      -14.3822680082       -0.8528094676  MEMB      43              0.0000000000
      5820        49  POPC      H15X           26.1388403061      -13.4343305141       -1.1036847797  MEMB      43              0.0000000000
      5821        49  POPC      H15Y           24.5469101539      -14.2957070605       -1.1404175091  MEMB      43              0.0000000000
      5822        49  POPC      C316           26.2105942423      -15.5335010493       -1.7362813291  MEMB      43              0.0000000000
      5823        49  POPC      H16X           26.1673136866      -15.2995021284       -2.8214968984  MEMB      43              0.0000000000
      5824        49  POPC      H16Y           25.5330657349      -16.4135589374       -1.7084548530  MEMB      43              0.0000000000
      5825        49  POPC      H16Z           27.2428800713      -15.7816619067       -1.4089850585  MEMB      43              0.0000000000
      5826        50  POPC      N             -16.2435221770      -23.4748321527       17.9781109568  MEMB      44              0.0000000000
      5827        50  POPC      C12           -16.6579457769      -24.8457319594       17.4832366910  MEMB      44              0.0000000000
      5828        50  POPC      H12A          -16.4246853377      -24.8911347917       16.4297055122  MEMB      44              0.0000000000
      5829        50  POPC      H12B          -17.7292559707      -24.9566391250       17.5632000569  MEMB      44              0.0000000000
      5830        50  POPC      C13           -16.9680819691      -23.1632052076       19.2286832337  MEMB      44              0.0000000000
      5831        50  POPC      H13A          -18.0019267935      -23.0125406416       18.9550686845  MEMB      44              0.0000000000
      5832        50  POPC      H13B          -16.9542236338      -24.0213822618       19.8842289336  MEMB      44              0.0000000000
      5833        50  POPC      H13C          -16.5383761401      -22.3070159115       19.7273743190  MEMB      44              0.0000000000
      5834        50  POPC      C14           -14.7323131616      -23.4962303554       18.0702751944  MEMB      44              0.0000000000
      5835        50  POPC      H14A          -14.4002496887      -22.4928102202       18.2922705850  MEMB      44              0.0000000000
      5836        50  POPC      H14B          -14.3770559013      -24.1452552918       18.8570146329  MEMB      44              0.0000000000
      5837        50  POPC      H14C          -14.1796578937      -23.7340248600       17.1733771983  MEMB      44              0.0000000000
      5838        50  POPC      C15           -16.6734696187      -22.5073104216       16.8857337895  MEMB      44              0.0000000000
      5839        50  POPC      H15A          -16.2272550704      -21.5577791168       17.1420215296  MEMB      44              0.0000000000
      5840        50  POPC      H15B          -17.7321717881      -22.4330300721       17.0858141887  MEMB      44              0.0000000000
      5841        50  POPC      H15C          -16.5048656927      -22.8653628896       15.8808599690  MEMB      44              0.0000000000
      5842        50  POPC      C11           -16.0110805336      -26.1737128568       18.1335205361  MEMB      44              0.0000000000
      5843        50  POPC      H11A          -14.9010978333      -26.1812375680       18.0865876182  MEMB      44              0.0000000000
      5844        50  POPC      H11B          -16.2978485242      -27.1349929592       17.6560001384  MEMB      44              0.0000000000
      5845        50  POPC      P             -16.9939895461      -27.4391181602       20.2837943920  MEMB      44              0.0000000000
      5846        50  POPC      O13           -18.0867634503      -27.9470337868       19.4573147854  MEMB      44              0.0000000000
      5847        50  POPC      O14           -17.3558452767      -27.0377660333       21.6706145415  MEMB      44              0.0000000000
      5848        50  POPC      O12           -16.2777735102      -26.2413423169       19.5083448614  MEMB      44              0.0000000000
      5849        50  POPC      O11           -15.7186143595      -28.4315061482       20.3003710676  MEMB      44              0.0000000000
      5850        50  POPC      C1            -14.5884164150      -28.0681568603       20.9893314576  MEMB      44              0.0000000000
      5851        50  POPC      HA            -14.6362887264      -28.7205509604       21.8873354400  MEMB      44              0.0000000000
      5852        50  POPC      HB            -14.5033179648      -27.0245067095       21.3606448453  MEMB      44              0.0000000000
      5853        50  POPC      C2            -13.2273544209      -28.4304813594       20.3134503906  MEMB      44              0.0000000000
      5854        50  POPC      HS            -12.4982100040      -28.5215547527       21.1467422721  MEMB      44              0.0000000000
      5855        50  POPC      O21           -12.8993400804      -27.4192230070       19.3703687960  MEMB      44              0.0000000000
      5856        50  POPC      C21           -12.2649632080      -26.3659439229       19.9204223278  MEMB      44              0.0000000000
      5857        50  POPC      O22           -12.0377513280      -26.2358742625       21.1013782465  MEMB      44              0.0000000000
      5858        50  POPC      C22           -11.7888552645      -25.4054560768       18.7934656495  MEMB      44              0.0000000000
      5859        50  POPC      H2R           -10.8733601710      -24.9334044334       19.2098271372  MEMB      44              0.0000000000
      5860        50  POPC      H2S           -12.5656110602      -24.6225606899       18.6591304729  MEMB      44              0.0000000000
      5861        50  POPC      C3            -13.1711653513      -29.8200504474       19.6189185668  MEMB      44              0.0000000000
      5862        50  POPC      HX            -13.1775421881      -30.5697127221       20.4388498338  MEMB      44              0.0000000000
      5863        50  POPC      HY            -12.1351115463      -30.0573845033       19.2955207532  MEMB      44              0.0000000000
      5864        50  POPC      O31           -14.1391194449      -30.0841918356       18.6404856577  MEMB      44              0.0000000000
      5865        50  POPC      C31           -13.8262658121      -29.9768130199       17.3334303109  MEMB      44              0.0000000000
      5866        50  POPC      O32           -12.7326289929      -29.7299666333       16.8503512864  MEMB      44              0.0000000000
      5867        50  POPC      C32           -15.0751767555      -30.3267979968       16.5222097191  MEMB      44              0.0000000000
      5868        50  POPC      H2X           -15.9052389410      -29.7713505328       17.0088267432  MEMB      44              0.0000000000
      5869        50  POPC      H2Y           -15.3229858966      -31.4096005918       16.5434143359  MEMB      44              0.0000000000
      5870        50  POPC      C23           -11.3662387735      -25.9321681733       17.3912817586  MEMB      44              0.0000000000
      5871        50  POPC      H3R           -10.8047402433      -26.8676083155       17.6010254414  MEMB      44              0.0000000000
      5872        50  POPC      H3S           -10.6511433679      -25.1856504124       16.9842544886  MEMB      44              0.0000000000
      5873        50  POPC      C24           -12.4441770324      -26.1151810975       16.3680363980  MEMB      44              0.0000000000
      5874        50  POPC      H4R           -13.2084608150      -25.3110132026       16.4272408350  MEMB      44              0.0000000000
      5875        50  POPC      H4S           -12.8053654557      -27.0386041101       16.8691888933  MEMB      44              0.0000000000
      5876        50  POPC      C25           -11.9425638596      -26.3138162438       14.9167131637  MEMB      44              0.0000000000
      5877        50  POPC      H5R           -11.1763761390      -27.1183025954       14.9256030452  MEMB      44              0.0000000000
      5878        50  POPC      H5S           -11.4309636006      -25.3566849868       14.6790453533  MEMB      44              0.0000000000
      5879        50  POPC      C26           -13.0559142636      -26.5715987367       13.8240731696  MEMB      44              0.0000000000
      5880        50  POPC      H6R           -14.0069875621      -26.2199838128       14.2781081128  MEMB      44              0.0000000000
      5881        50  POPC      H6S           -13.1479028446      -27.6008140685       13.4159375178  MEMB      44              0.0000000000
      5882        50  POPC      C27           -12.7609810532      -25.7152212731       12.5369548046  MEMB      44              0.0000000000
      5883        50  POPC      H7R           -11.7407563248      -26.0074080773       12.2081853474  MEMB      44              0.0000000000
      5884        50  POPC      H7S           -12.6953977201      -24.6997527147       12.9828734506  MEMB      44              0.0000000000
      5885        50  POPC      C28           -13.7457474030      -25.8736323848       11.3599435125  MEMB      44              0.0000000000
      5886        50  POPC      H8R           -13.8234081930      -26.9276865202       11.0175114945  MEMB      44              0.0000000000
      5887        50  POPC      H8S           -13.1806665872      -25.4537306639       10.5004744305  MEMB      44              0.0000000000
      5888        50  POPC      C29           -15.0667946907      -25.2095689539       11.5792983270  MEMB      44              0.0000000000
      5889        50  POPC      H91           -15.5705040024      -25.5670890797       12.4894938075  MEMB      44              0.0000000000
      5890        50  POPC      C210          -15.6440212829      -24.3413904654       10.8252297642  MEMB      44              0.0000000000
      5891        50  POPC      H101          -16.6653682457      -24.1033251705       11.1571568814  MEMB      44              0.0000000000
      5892        50  POPC      C211          -15.2846784171      -23.7374107124        9.4828946971  MEMB      44              0.0000000000
      5893        50  POPC      H11R          -14.6334104426      -24.4580789677        8.9436284346  MEMB      44              0.0000000000
      5894        50  POPC      H11S          -14.6868620368      -22.8320890648        9.7223303171  MEMB      44              0.0000000000
      5895        50  POPC      C212          -16.5535416370      -23.1748260816        8.7709927584  MEMB      44              0.0000000000
      5896        50  POPC      H12R          -17.1612878953      -22.5682907487        9.4760316063  MEMB      44              0.0000000000
      5897        50  POPC      H12S          -17.1865266945      -24.0161812683        8.4163483861  MEMB      44              0.0000000000
      5898        50  POPC      C213          -16.3077786468      -22.1816145667        7.6923827801  MEMB      44              0.0000000000
      5899        50  POPC      H13R          -15.5459336394      -21.4544012808        8.0460412571  MEMB      44              0.0000000000
      5900        50  POPC      H13S          -17.2835698849      -21.6530500121        7.6397351084  MEMB      44              0.0000000000
      5901        50  POPC      C214          -15.7310114272      -22.5876382159        6.3291014856  MEMB      44              0.0000000000
      5902        50  POPC      H14R          -16.2918304751      -23.3632413139        5.7649715574  MEMB      44              0.0000000000
      5903        50  POPC      H14S          -14.6991908356      -22.9903880164        6.4154726079  MEMB      44              0.0000000000
      5904        50  POPC      C215          -15.5163731489      -21.3291047334        5.4385398848  MEMB      44              0.0000000000
      5905        50  POPC      H15R          -15.2133929861      -20.4960349559        6.1082553525  MEMB      44              0.0000000000
      5906        50  POPC      H15S          -16.5051442451      -20.9295939082        5.1270206142  MEMB      44              0.0000000000
      5907        50  POPC      C216          -14.3113508523      -21.4051868958        4.4461863592  MEMB      44              0.0000000000
      5908        50  POPC      H16R          -13.3445415772      -21.3129872911        4.9857229798  MEMB      44              0.0000000000
      5909        50  POPC      H16S          -14.3817073988      -20.4486320782        3.8854954713  MEMB      44              0.0000000000
      5910        50  POPC      C217          -14.5213345241      -22.5559524811        3.4274884855  MEMB      44              0.0000000000
      5911        50  POPC      H17R          -14.3930042230      -23.5963506866        3.7954887625  MEMB      44              0.0000000000
      5912        50  POPC      H17S          -13.5543513250      -22.5225442775        2.8814578354  MEMB      44              0.0000000000
      5913        50  POPC      C218          -15.6536278169      -22.3957778655        2.4950152779  MEMB      44              0.0000000000
      5914        50  POPC      H18R          -15.4393405667      -23.1009510342        1.6636707784  MEMB      44              0.0000000000
      5915        50  POPC      H18S          -15.6105097545      -21.4252263368        1.9560425617  MEMB      44              0.0000000000
      5916        50  POPC      H18T          -16.5236229386      -22.5726260747        3.1629625467  MEMB      44              0.0000000000
      5917        50  POPC      C33           -15.0193193440      -29.8505589337       15.0367339961  MEMB      44              0.0000000000
      5918        50  POPC      H3X           -14.3515450573      -30.5133329814       14.4458624680  MEMB      44              0.0000000000
      5919        50  POPC      H3Y           -14.6038425862      -28.8375940001       14.8480486890  MEMB      44              0.0000000000
      5920        50  POPC      C34           -16.4648983187      -29.9079538660       14.5032158506  MEMB      44              0.0000000000
      5921        50  POPC      H4X           -17.2815785445      -29.4868974383       15.1277686737  MEMB      44              0.0000000000
      5922        50  POPC      H4Y           -16.6644984357      -30.9696283147       14.2437396046  MEMB      44              0.0000000000
      5923        50  POPC      C35           -16.4439101751      -29.1575484300       13.1402596462  MEMB      44              0.0000000000
      5924        50  POPC      H5X           -15.7581188412      -29.6649583345       12.4285388142  MEMB      44              0.0000000000
      5925        50  POPC      H5Y           -16.0901245813      -28.1207996281       13.3254860606  MEMB      44              0.0000000000
      5926        50  POPC      C36           -17.9205956847      -29.1136975299       12.5680464979  MEMB      44              0.0000000000
      5927        50  POPC      H6X           -18.6364351438      -28.9030096616       13.3911538301  MEMB      44              0.0000000000
      5928        50  POPC      H6Y           -18.0588763953      -30.1438447258       12.1756228112  MEMB      44              0.0000000000
      5929        50  POPC      C37           -18.0950755741      -28.1334946669       11.4444748130  MEMB      44              0.0000000000
      5930        50  POPC      H7X           -18.0450446698      -27.0893704789       11.8208023656  MEMB      44              0.0000000000
      5931        50  POPC      H7Y           -19.1848770823      -28.1559875785       11.2296544306  MEMB      44              0.0000000000
      5932        50  POPC      C38           -17.2255738080      -28.4312133170       10.2027884503  MEMB      44              0.0000000000
      5933        50  POPC      H8X           -17.2619932016      -29.4636689288        9.7940957892  MEMB      44              0.0000000000
      5934        50  POPC      H8Y           -16.1930927730      -28.2025609448       10.5434086575  MEMB      44              0.0000000000
      5935        50  POPC      C39           -17.4044626516      -27.5261196490        9.0112267752  MEMB      44              0.0000000000
      5936        50  POPC      H9X           -17.4546599197      -26.4643244636        9.3343250321  MEMB      44              0.0000000000
      5937        50  POPC      H9Y           -18.3320737443      -27.7217607313        8.4319314214  MEMB      44              0.0000000000
      5938        50  POPC      C310          -16.2478594316      -27.7515826012        7.9553676466  MEMB      44              0.0000000000
      5939        50  POPC      H10X          -15.9772828338      -28.8060425287        7.7335045602  MEMB      44              0.0000000000
      5940        50  POPC      H10Y          -15.3433045521      -27.3119531750        8.4274139304  MEMB      44              0.0000000000
      5941        50  POPC      C311          -16.4941062211      -27.0034655525        6.6211160841  MEMB      44              0.0000000000
      5942        50  POPC      H11X          -16.5303808048      -25.9316040622        6.9111469163  MEMB      44              0.0000000000
      5943        50  POPC      H11Y          -17.5012134229      -27.3228610956        6.2775424957  MEMB      44              0.0000000000
      5944        50  POPC      C312          -15.4769855275      -27.3610892433        5.4334630346  MEMB      44              0.0000000000
      5945        50  POPC      H12X          -15.7682591780      -26.9386864495        4.4480408334  MEMB      44              0.0000000000
      5946        50  POPC      H12Y          -15.5925112634      -28.4474580352        5.2315282344  MEMB      44              0.0000000000
      5947        50  POPC      C313          -14.0455189424      -27.0585649021        5.6452764710  MEMB      44              0.0000000000
      5948        50  POPC      H13X          -13.8800710231      -27.2088649238        6.7335589996  MEMB      44              0.0000000000
      5949        50  POPC      H13Y          -13.8406273312      -25.9819967232        5.4626805960  MEMB      44              0.0000000000
      5950        50  POPC      C314          -12.9599771353      -27.7026930097        4.7368607881  MEMB      44              0.0000000000
      5951        50  POPC      H14X          -11.9508367429      -27.2973390180        4.9641158907  MEMB      44              0.0000000000
      5952        50  POPC      H14Y          -13.2019120501      -27.4509853932        3.6821420213  MEMB      44              0.0000000000
      5953        50  POPC      C315          -12.7624392414      -29.1836545824        4.7326411990  MEMB      44              0.0000000000
      5954        50  POPC      H15X          -13.7367856103      -29.7150896072        4.7831100743  MEMB      44              0.0000000000
      5955        50  POPC      H15Y          -12.3141440735      -29.5687723892        5.6734057960  MEMB      44              0.0000000000
      5956        50  POPC      C316          -11.8187534946      -29.9702813413        3.7373663282  MEMB      44              0.0000000000
      5957        50  POPC      H16X          -12.1808049383      -29.8287987044        2.6965869201  MEMB      44              0.0000000000
      5958        50  POPC      H16Y          -11.9117224957      -31.0394992293        4.0245080739  MEMB      44              0.0000000000
      5959        50  POPC      H16Z          -10.7491868298      -29.6769786362        3.8031063905  MEMB      44              0.0000000000
      5960        51  POPC      N              24.7205682067       14.8050688141       19.8231640220  MEMB      45              0.0000000000
      5961        51  POPC      C12            23.9376678068       16.0301235414       19.2574277823  MEMB      45              0.0000000000
      5962        51  POPC      H12A           23.4640321179       16.4372814291       20.1385019354  MEMB      45              0.0000000000
      5963        51  POPC      H12B           23.0908882634       15.7243622976       18.6608757077  MEMB      45              0.0000000000
      5964        51  POPC      C13            25.7493304117       15.1867192919       20.8669544804  MEMB      45              0.0000000000
      5965        51  POPC      H13A           25.2002596810       15.6547683489       21.6706034398  MEMB      45              0.0000000000
      5966        51  POPC      H13B           26.2138465925       14.2951486874       21.2615765662  MEMB      45              0.0000000000
      5967        51  POPC      H13C           26.5295888933       15.7816267270       20.4156434350  MEMB      45              0.0000000000
      5968        51  POPC      C14            23.6612233299       14.0162915848       20.4616344493  MEMB      45              0.0000000000
      5969        51  POPC      H14A           23.9620553488       13.0137198572       20.7276235008  MEMB      45              0.0000000000
      5970        51  POPC      H14B           23.3706444999       14.4783705501       21.3935394936  MEMB      45              0.0000000000
      5971        51  POPC      H14C           22.8181097487       13.7620163005       19.8364113353  MEMB      45              0.0000000000
      5972        51  POPC      C15            25.4258960974       14.0841397782       18.6348389012  MEMB      45              0.0000000000
      5973        51  POPC      H15A           26.2898583022       14.6653084221       18.3481120064  MEMB      45              0.0000000000
      5974        51  POPC      H15B           24.7697914171       14.0010712729       17.7810084645  MEMB      45              0.0000000000
      5975        51  POPC      H15C           25.5926281188       13.0762293428       18.9851488697  MEMB      45              0.0000000000
      5976        51  POPC      C11            24.7055587359       17.1043220864       18.3542866986  MEMB      45              0.0000000000
      5977        51  POPC      H11A           23.9864178763       17.9396959275       18.2153335069  MEMB      45              0.0000000000
      5978        51  POPC      H11B           24.9210934091       16.8197391959       17.3022037744  MEMB      45              0.0000000000
      5979        51  POPC      P              27.1920188567       18.1694294866       18.3151162935  MEMB      45              0.0000000000
      5980        51  POPC      O13            28.4410445349       17.2960931219       18.5181093696  MEMB      45              0.0000000000
      5981        51  POPC      O14            27.1939013538       19.5575353973       18.8697545350  MEMB      45              0.0000000000
      5982        51  POPC      O12            25.9237159098       17.5304879275       19.0711945360  MEMB      45              0.0000000000
      5983        51  POPC      O11            26.8466459113       18.1409624540       16.8275189285  MEMB      45              0.0000000000
      5984        51  POPC      C1             26.0624178295       19.1094558224       16.1703740981  MEMB      45              0.0000000000
      5985        51  POPC      HA             26.5927716395       20.0318470498       15.8506233187  MEMB      45              0.0000000000
      5986        51  POPC      HB             25.2373013605       19.4287761647       16.8423400349  MEMB      45              0.0000000000
      5987        51  POPC      C2             25.5361940581       18.3309913454       14.9584003843  MEMB      45              0.0000000000
      5988        51  POPC      HS             25.0037406394       17.4579507757       15.3926981588  MEMB      45              0.0000000000
      5989        51  POPC      O21            26.6537483484       17.8361231308       14.1152547998  MEMB      45              0.0000000000
      5990        51  POPC      C21            26.2192202671       16.8521231820       13.3861129489  MEMB      45              0.0000000000
      5991        51  POPC      O22            25.0525765237       16.5965008483       13.1663895659  MEMB      45              0.0000000000
      5992        51  POPC      C22            27.4837451152       16.2043313481       12.6799018990  MEMB      45              0.0000000000
      5993        51  POPC      H2R            27.5954211470       15.3144306248       13.3355895959  MEMB      45              0.0000000000
      5994        51  POPC      H2S            28.4500351167       16.7493567190       12.7395009029  MEMB      45              0.0000000000
      5995        51  POPC      C3             24.5853950770       19.2912048175       14.1500391560  MEMB      45              0.0000000000
      5996        51  POPC      HX             23.8334290291       19.8415934028       14.7549695909  MEMB      45              0.0000000000
      5997        51  POPC      HY             24.0160207241       18.6569138778       13.4374323325  MEMB      45              0.0000000000
      5998        51  POPC      O31            25.4609244638       20.1920161888       13.3109103905  MEMB      45              0.0000000000
      5999        51  POPC      C31            25.0451056415       21.4320525292       13.1003536943  MEMB      45              0.0000000000
      6000        51  POPC      O32            24.1568155620       21.9796050165       13.6711591539  MEMB      45              0.0000000000
      6001        51  POPC      C32            26.2298582693       22.0551539425       12.2453686616  MEMB      45              0.0000000000
      6002        51  POPC      H2X            27.1591909325       22.1869253198       12.8397572714  MEMB      45              0.0000000000
      6003        51  POPC      H2Y            25.8439125643       23.0433181558       11.9153706550  MEMB      45              0.0000000000
      6004        51  POPC      C23            27.1466714307       15.8264564924       11.2822287233  MEMB      45              0.0000000000
      6005        51  POPC      H3R            26.2265592091       15.3044305624       10.9428123671  MEMB      45              0.0000000000
      6006        51  POPC      H3S            27.9704875287       15.1466804348       10.9763651448  MEMB      45              0.0000000000
      6007        51  POPC      C24            27.1701234476       17.1578270013       10.4117487646  MEMB      45              0.0000000000
      6008        51  POPC      H4R            28.1910454374       17.5955617455       10.4324257462  MEMB      45              0.0000000000
      6009        51  POPC      H4S            26.3967994697       17.8558507216       10.7978243915  MEMB      45              0.0000000000
      6010        51  POPC      C25            26.8943700076       16.9116218647        8.9319444159  MEMB      45              0.0000000000
      6011        51  POPC      H5R            27.5065916580       16.1263575336        8.4391308892  MEMB      45              0.0000000000
      6012        51  POPC      H5S            27.0521469884       17.8452222596        8.3507233969  MEMB      45              0.0000000000
      6013        51  POPC      C26            25.4759282047       16.3922690847        8.5302309856  MEMB      45              0.0000000000
      6014        51  POPC      H6R            24.6595646253       17.0245717147        8.9401880790  MEMB      45              0.0000000000
      6015        51  POPC      H6S            25.2983496943       15.3833986863        8.9603098460  MEMB      45              0.0000000000
      6016        51  POPC      C27            25.2745807698       16.1011277842        7.0252782498  MEMB      45              0.0000000000
      6017        51  POPC      H7R            25.9139521902       15.2908506854        6.6142113099  MEMB      45              0.0000000000
      6018        51  POPC      H7S            25.4989628496       17.0647996222        6.5199952679  MEMB      45              0.0000000000
      6019        51  POPC      C28            23.7718923371       15.9894385351        6.7203520317  MEMB      45              0.0000000000
      6020        51  POPC      H8R            23.3369709913       15.2302871519        7.4050802861  MEMB      45              0.0000000000
      6021        51  POPC      H8S            23.7783416401       15.6890350152        5.6507548274  MEMB      45              0.0000000000
      6022        51  POPC      C29            22.8079350587       17.1160950710        7.0053256992  MEMB      45              0.0000000000
      6023        51  POPC      H91            22.1756117372       17.0110779430        7.8992708655  MEMB      45              0.0000000000
      6024        51  POPC      C210           22.5171008980       18.2270713641        6.2682121234  MEMB      45              0.0000000000
      6025        51  POPC      H101           21.8496743037       18.9756120210        6.7201287479  MEMB      45              0.0000000000
      6026        51  POPC      C211           23.1234861976       18.5829058206        4.9296905134  MEMB      45              0.0000000000
      6027        51  POPC      H11R           22.3319252492       18.6967368174        4.1584608928  MEMB      45              0.0000000000
      6028        51  POPC      H11S           23.7179722720       17.7114244426        4.5812260737  MEMB      45              0.0000000000
      6029        51  POPC      C212           23.9428847192       19.8886294120        4.9872021570  MEMB      45              0.0000000000
      6030        51  POPC      H12R           24.6551324154       19.8685632370        5.8396228131  MEMB      45              0.0000000000
      6031        51  POPC      H12S           23.2686337436       20.7069074351        5.3190566425  MEMB      45              0.0000000000
      6032        51  POPC      C213           24.5189322333       20.1686709668        3.6970248046  MEMB      45              0.0000000000
      6033        51  POPC      H13R           24.7526950758       21.2541239036        3.7353399240  MEMB      45              0.0000000000
      6034        51  POPC      H13S           23.7451119477       20.1213998757        2.9012310233  MEMB      45              0.0000000000
      6035        51  POPC      C214           25.7480981209       19.3524609060        3.3125230428  MEMB      45              0.0000000000
      6036        51  POPC      H14R           25.5424555934       18.2629806317        3.3836909438  MEMB      45              0.0000000000
      6037        51  POPC      H14S           26.5381957533       19.6658046048        4.0279829496  MEMB      45              0.0000000000
      6038        51  POPC      C215           26.4152605747       19.6771774165        1.9291312695  MEMB      45              0.0000000000
      6039        51  POPC      H15R           27.3524224295       19.0966740735        1.7910571112  MEMB      45              0.0000000000
      6040        51  POPC      H15S           26.6330594352       20.7628870074        1.8390234662  MEMB      45              0.0000000000
      6041        51  POPC      C216           25.4547045115       19.4088071588        0.7495787929  MEMB      45              0.0000000000
      6042        51  POPC      H16R           24.6368585909       20.1576263577        0.6808849760  MEMB      45              0.0000000000
      6043        51  POPC      H16S           24.9578379991       18.4245846403        0.8865116496  MEMB      45              0.0000000000
      6044        51  POPC      C217           26.1003350795       19.4766935380       -0.6480150861  MEMB      45              0.0000000000
      6045        51  POPC      H17R           26.4288997530       20.5073147673       -0.9013631030  MEMB      45              0.0000000000
      6046        51  POPC      H17S           25.2820478169       19.1855905610       -1.3408245666  MEMB      45              0.0000000000
      6047        51  POPC      C218           27.2722698767       18.5991167555       -0.7420537346  MEMB      45              0.0000000000
      6048        51  POPC      H18R           26.9515451274       17.6332833809       -0.2963835725  MEMB      45              0.0000000000
      6049        51  POPC      H18S           28.1986087848       18.9359509009       -0.2294515515  MEMB      45              0.0000000000
      6050        51  POPC      H18T           27.5952425434       18.4358038930       -1.7924528509  MEMB      45              0.0000000000
      6051        51  POPC      C33            26.4526890678       21.2016144404       10.9654109081  MEMB      45              0.0000000000
      6052        51  POPC      H3X            25.4358125762       21.0627122177       10.5399828068  MEMB      45              0.0000000000
      6053        51  POPC      H3Y            27.0502682391       20.2945333189       11.1986998732  MEMB      45              0.0000000000
      6054        51  POPC      C34            27.2231976721       21.8137306225        9.8108959808  MEMB      45              0.0000000000
      6055        51  POPC      H4X            28.1437220475       22.1577914811       10.3291417275  MEMB      45              0.0000000000
      6056        51  POPC      H4Y            26.7621297903       22.7602386443        9.4561280569  MEMB      45              0.0000000000
      6057        51  POPC      C35            27.5083741066       20.7174148588        8.7155478864  MEMB      45              0.0000000000
      6058        51  POPC      H5X            26.6928778713       20.9127998583        7.9867746870  MEMB      45              0.0000000000
      6059        51  POPC      H5Y            27.3247438589       19.6934775562        9.1056168473  MEMB      45              0.0000000000
      6060        51  POPC      C36            28.9223099839       20.8019434093        8.0495200955  MEMB      45              0.0000000000
      6061        51  POPC      H6X            29.6299918293       20.9929121485        8.8844078508  MEMB      45              0.0000000000
      6062        51  POPC      H6Y            28.9613276152       21.7045478325        7.4029097033  MEMB      45              0.0000000000
      6063        51  POPC      C37            29.4109210925       19.4658052171        7.4530695598  MEMB      45              0.0000000000
      6064        51  POPC      H7X            29.1886740122       18.6126591402        8.1291388474  MEMB      45              0.0000000000
      6065        51  POPC      H7Y            30.5184666520       19.5395660506        7.4059197703  MEMB      45              0.0000000000
      6066        51  POPC      C38            28.8302294243       18.9937807843        6.0749097674  MEMB      45              0.0000000000
      6067        51  POPC      H8X            28.8392120573       19.8708538732        5.3930137942  MEMB      45              0.0000000000
      6068        51  POPC      H8Y            27.7879666500       18.6309676639        6.2028795562  MEMB      45              0.0000000000
      6069        51  POPC      C39            29.5983577468       17.8984575053        5.3682146001  MEMB      45              0.0000000000
      6070        51  POPC      H9X            30.3813809142       17.4204627790        5.9948850800  MEMB      45              0.0000000000
      6071        51  POPC      H9Y            30.2584317917       18.3143009653        4.5772034640  MEMB      45              0.0000000000
      6072        51  POPC      C310           28.7367728048       16.7888433101        4.7283404310  MEMB      45              0.0000000000
      6073        51  POPC      H10X           27.9453397117       17.2961448275        4.1362263035  MEMB      45              0.0000000000
      6074        51  POPC      H10Y           28.1889891984       16.2967239255        5.5602490315  MEMB      45              0.0000000000
      6075        51  POPC      C311           29.5829126776       15.8127383362        3.8663725918  MEMB      45              0.0000000000
      6076        51  POPC      H11X           30.3525269041       15.2364580411        4.4230735891  MEMB      45              0.0000000000
      6077        51  POPC      H11Y           30.0943647376       16.4195821776        3.0888905780  MEMB      45              0.0000000000
      6078        51  POPC      C312           28.5307853448       14.8908988812        3.1718971509  MEMB      45              0.0000000000
      6079        51  POPC      H12X           28.0917545856       14.3247627341        4.0210514531  MEMB      45              0.0000000000
      6080        51  POPC      H12Y           29.1076574435       14.1803327630        2.5421073968  MEMB      45              0.0000000000
      6081        51  POPC      C313           27.3328154611       15.5321824197        2.3399135919  MEMB      45              0.0000000000
      6082        51  POPC      H13X           27.8102265437       15.9499230126        1.4278317912  MEMB      45              0.0000000000
      6083        51  POPC      H13Y           26.8407185121       16.4036538471        2.8223026447  MEMB      45              0.0000000000
      6084        51  POPC      C314           26.3283669614       14.4858070026        1.7969784477  MEMB      45              0.0000000000
      6085        51  POPC      H14X           25.8043619324       14.0127006573        2.6548304933  MEMB      45              0.0000000000
      6086        51  POPC      H14Y           26.9061296280       13.6323662219        1.3820685936  MEMB      45              0.0000000000
      6087        51  POPC      C315           25.4379896738       15.0900768210        0.6847249476  MEMB      45              0.0000000000
      6088        51  POPC      H15X           25.1150027840       14.3189517948       -0.0469626793  MEMB      45              0.0000000000
      6089        51  POPC      H15Y           26.1219088057       15.6496450302        0.0113296450  MEMB      45              0.0000000000
      6090        51  POPC      C316           24.2661319469       15.9502940949        1.1695049973  MEMB      45              0.0000000000
      6091        51  POPC      H16X           24.3648794631       16.6338625885        2.0397380209  MEMB      45              0.0000000000
      6092        51  POPC      H16Y           23.5009048345       15.1900436668        1.4355274390  MEMB      45              0.0000000000
      6093        51  POPC      H16Z           23.9517973044       16.5318638008        0.2765939341  MEMB      45              0.0000000000
      6094        52  POPC      N              -1.3035110468      -32.3242347850       17.5362804487  MEMB      46              0.0000000000
      6095        52  POPC      C12            -0.7446564062      -32.5510704505       18.9165859135  MEMB      46              0.0000000000
      6096        52  POPC      H12A            0.3268955572      -32.4776991827       18.8034798189  MEMB      46              0.0000000000
      6097        52  POPC      H12B           -1.0316471026      -33.5411636986       19.2386909622  MEMB      46              0.0000000000
      6098        52  POPC      C13            -2.8010435816      -32.5177842878       17.5235302579  MEMB      46              0.0000000000
      6099        52  POPC      H13A           -3.0543660678      -33.5540184228       17.6921914058  MEMB      46              0.0000000000
      6100        52  POPC      H13B           -3.3214250964      -32.0472823940       18.3446460854  MEMB      46              0.0000000000
      6101        52  POPC      H13C           -3.2200110173      -32.2732480641       16.5586114931  MEMB      46              0.0000000000
      6102        52  POPC      C14            -0.9980768331      -30.8860206687       17.0873079315  MEMB      46              0.0000000000
      6103        52  POPC      H14A            0.0721490021      -30.7968016098       16.9730423787  MEMB      46              0.0000000000
      6104        52  POPC      H14B           -1.4094795009      -30.7592213736       16.0968182569  MEMB      46              0.0000000000
      6105        52  POPC      H14C           -1.3955294639      -30.2400406037       17.8561649516  MEMB      46              0.0000000000
      6106        52  POPC      C15            -0.6197975543      -33.2726172912       16.6049049356  MEMB      46              0.0000000000
      6107        52  POPC      H15A           -0.9148093157      -33.0833279561       15.5833681267  MEMB      46              0.0000000000
      6108        52  POPC      H15B           -0.9239767461      -34.2507326618       16.9471987510  MEMB      46              0.0000000000
      6109        52  POPC      H15C            0.4373532911      -33.1685471015       16.7998448937  MEMB      46              0.0000000000
      6110        52  POPC      C11            -1.1167160507      -31.5085004197       20.1419279784  MEMB      46              0.0000000000
      6111        52  POPC      H11A           -0.6834265999      -31.8753021229       21.0969346029  MEMB      46              0.0000000000
      6112        52  POPC      H11B           -2.2162553808      -31.4949108389       20.3005136928  MEMB      46              0.0000000000
      6113        52  POPC      P               0.6993535425      -29.6076409419       20.3345577649  MEMB      46              0.0000000000
      6114        52  POPC      O13             1.5189520704      -30.5602450075       21.1569040031  MEMB      46              0.0000000000
      6115        52  POPC      O14             0.4559015940      -28.2497278111       20.8409012414  MEMB      46              0.0000000000
      6116        52  POPC      O12            -0.7395177883      -30.1526366814       19.9835425138  MEMB      46              0.0000000000
      6117        52  POPC      O11             1.3758203408      -29.4578549635       18.8735569956  MEMB      46              0.0000000000
      6118        52  POPC      C1              2.6696171062      -28.8919256887       18.7225842614  MEMB      46              0.0000000000
      6119        52  POPC      HA              3.3645457448      -29.5655412986       19.2681455663  MEMB      46              0.0000000000
      6120        52  POPC      HB              2.7468657443      -27.9309569169       19.2747553805  MEMB      46              0.0000000000
      6121        52  POPC      C2              2.9268675841      -28.7675093590       17.2335708646  MEMB      46              0.0000000000
      6122        52  POPC      HS              3.9172850172      -28.3059341335       17.0327160237  MEMB      46              0.0000000000
      6123        52  POPC      O21             1.8736933630      -27.8647872459       16.7717835103  MEMB      46              0.0000000000
      6124        52  POPC      C21             2.2693229344      -26.6501979575       16.3251075216  MEMB      46              0.0000000000
      6125        52  POPC      O22             3.3692749866      -26.2468912191       16.2042557400  MEMB      46              0.0000000000
      6126        52  POPC      C22             1.0589534351      -25.8370606972       15.9701717429  MEMB      46              0.0000000000
      6127        52  POPC      H2R             1.3479810799      -25.1330287489       15.1607748660  MEMB      46              0.0000000000
      6128        52  POPC      H2S             0.6044476348      -25.1741002778       16.7371326401  MEMB      46              0.0000000000
      6129        52  POPC      C3              2.7837137468      -30.0843322286       16.4058590336  MEMB      46              0.0000000000
      6130        52  POPC      HX              1.7648451752      -30.5151222614       16.5090475078  MEMB      46              0.0000000000
      6131        52  POPC      HY              3.4652631737      -30.8693524588       16.7977195184  MEMB      46              0.0000000000
      6132        52  POPC      O31             3.0463777122      -29.9370454630       14.9984751649  MEMB      46              0.0000000000
      6133        52  POPC      C31             4.2900762340      -30.1246867936       14.6136373317  MEMB      46              0.0000000000
      6134        52  POPC      O32             5.2450130195      -30.2846882144       15.2928295640  MEMB      46              0.0000000000
      6135        52  POPC      C32             4.2678849073      -30.3019206458       13.1684021309  MEMB      46              0.0000000000
      6136        52  POPC      H2X             3.6306854514      -29.5625411488       12.6377272504  MEMB      46              0.0000000000
      6137        52  POPC      H2Y             4.0236433684      -31.3202442398       12.7973438476  MEMB      46              0.0000000000
      6138        52  POPC      C23            -0.1651612143      -26.7408457822       15.6562006618  MEMB      46              0.0000000000
      6139        52  POPC      H3R            -0.4697192823      -27.3083548792       16.5614625572  MEMB      46              0.0000000000
      6140        52  POPC      H3S             0.1129746611      -27.4473404386       14.8451356573  MEMB      46              0.0000000000
      6141        52  POPC      C24            -1.4534451453      -26.0638641039       15.0296839694  MEMB      46              0.0000000000
      6142        52  POPC      H4R            -1.8536881922      -25.3546136959       15.7853890578  MEMB      46              0.0000000000
      6143        52  POPC      H4S            -2.1711748646      -26.9052654620       14.9237189501  MEMB      46              0.0000000000
      6144        52  POPC      C25            -1.2797647966      -25.3384030527       13.6650308312  MEMB      46              0.0000000000
      6145        52  POPC      H5R            -0.4557781596      -24.6022341294       13.7808849716  MEMB      46              0.0000000000
      6146        52  POPC      H5S            -2.2633373940      -24.8536101705       13.4864774748  MEMB      46              0.0000000000
      6147        52  POPC      C26            -0.9608571593      -26.2832304268       12.4763705896  MEMB      46              0.0000000000
      6148        52  POPC      H6R            -0.1438561725      -26.9893874979       12.7374686886  MEMB      46              0.0000000000
      6149        52  POPC      H6S            -0.6895425133      -25.5889599095       11.6525396992  MEMB      46              0.0000000000
      6150        52  POPC      C27            -2.1704978325      -27.0649020656       11.8224310074  MEMB      46              0.0000000000
      6151        52  POPC      H7R            -2.9450895966      -26.2780078535       11.6994403584  MEMB      46              0.0000000000
      6152        52  POPC      H7S            -2.4954218185      -27.8247592124       12.5649680744  MEMB      46              0.0000000000
      6153        52  POPC      C28            -1.9482880542      -27.8764424218       10.5378520467  MEMB      46              0.0000000000
      6154        52  POPC      H8R            -1.8471332229      -27.1677896652        9.6882055528  MEMB      46              0.0000000000
      6155        52  POPC      H8S            -2.9391573701      -28.3669985940       10.4289763871  MEMB      46              0.0000000000
      6156        52  POPC      C29            -0.8888954643      -28.8833067252       10.5287511716  MEMB      46              0.0000000000
      6157        52  POPC      H91            -0.7587951429      -29.2591481039       11.5543328562  MEMB      46              0.0000000000
      6158        52  POPC      C210           -0.0702617418      -29.4454657655        9.5760077187  MEMB      46              0.0000000000
      6159        52  POPC      H101            0.7030517122      -30.1662060287        9.8801791677  MEMB      46              0.0000000000
      6160        52  POPC      C211           -0.0057767299      -29.1209379188        8.0391454348  MEMB      46              0.0000000000
      6161        52  POPC      H11R           -0.0217240076      -30.0877896770        7.4920951727  MEMB      46              0.0000000000
      6162        52  POPC      H11S            1.0163051404      -28.7326960854        7.8418193009  MEMB      46              0.0000000000
      6163        52  POPC      C212           -0.9174728034      -28.0793967932        7.2231155894  MEMB      46              0.0000000000
      6164        52  POPC      H12R           -0.3857487247      -27.1144724024        7.3663336647  MEMB      46              0.0000000000
      6165        52  POPC      H12S           -1.9107358421      -28.1525815889        7.7154504650  MEMB      46              0.0000000000
      6166        52  POPC      C213           -0.8672451122      -28.4019705531        5.6973906715  MEMB      46              0.0000000000
      6167        52  POPC      H13R           -1.1935530018      -29.4422603207        5.4837521450  MEMB      46              0.0000000000
      6168        52  POPC      H13S            0.1387736877      -28.2854847740        5.2405768923  MEMB      46              0.0000000000
      6169        52  POPC      C214           -1.8823749719      -27.5469448451        4.8929110931  MEMB      46              0.0000000000
      6170        52  POPC      H14R           -1.5187633383      -26.4993329151        4.9608581341  MEMB      46              0.0000000000
      6171        52  POPC      H14S           -2.8096228480      -27.6429241093        5.4973293249  MEMB      46              0.0000000000
      6172        52  POPC      C215           -2.0471527707      -27.9883768299        3.4112980888  MEMB      46              0.0000000000
      6173        52  POPC      H15R           -3.0110494884      -27.5014539774        3.1502823129  MEMB      46              0.0000000000
      6174        52  POPC      H15S           -2.1685825009      -29.0922586231        3.3793465911  MEMB      46              0.0000000000
      6175        52  POPC      C216           -0.9154365217      -27.5648967410        2.4285408060  MEMB      46              0.0000000000
      6176        52  POPC      H16R           -0.0514451572      -28.2163745015        2.6803668200  MEMB      46              0.0000000000
      6177        52  POPC      H16S           -0.5179347665      -26.5457145599        2.6223992268  MEMB      46              0.0000000000
      6178        52  POPC      C217           -1.3504882952      -27.5684466940        0.8771156445  MEMB      46              0.0000000000
      6179        52  POPC      H17R           -1.6534258977      -28.6133716402        0.6519893445  MEMB      46              0.0000000000
      6180        52  POPC      H17S           -0.4364675321      -27.3533876061        0.2832840038  MEMB      46              0.0000000000
      6181        52  POPC      C218           -2.5797690804      -26.6338788810        0.5847956877  MEMB      46              0.0000000000
      6182        52  POPC      H18R           -3.5020610594      -27.0812054724        1.0132780336  MEMB      46              0.0000000000
      6183        52  POPC      H18S           -2.6959330897      -26.7702192376       -0.5116707149  MEMB      46              0.0000000000
      6184        52  POPC      H18T           -2.3988791827      -25.5693490172        0.8462838043  MEMB      46              0.0000000000
      6185        52  POPC      C33             5.5951284060      -30.0832189614       12.4739276221  MEMB      46              0.0000000000
      6186        52  POPC      H3X             6.3606397683      -30.8389348621       12.7517886939  MEMB      46              0.0000000000
      6187        52  POPC      H3Y             6.0199547730      -29.1038349458       12.7815807366  MEMB      46              0.0000000000
      6188        52  POPC      C34             5.3178566324      -30.0669873322       10.9661908680  MEMB      46              0.0000000000
      6189        52  POPC      H4X             6.2779524962      -29.8906659584       10.4356741414  MEMB      46              0.0000000000
      6190        52  POPC      H4Y             4.8273713760      -29.0862385206       10.7876514405  MEMB      46              0.0000000000
      6191        52  POPC      C35             4.6723396678      -31.2825238619       10.2934957632  MEMB      46              0.0000000000
      6192        52  POPC      H5X             3.6462917015      -31.5186587670       10.6481598897  MEMB      46              0.0000000000
      6193        52  POPC      H5Y             5.2862279214      -32.1936658178       10.4586684411  MEMB      46              0.0000000000
      6194        52  POPC      C36             4.5208371530      -30.9808834680        8.8531127393  MEMB      46              0.0000000000
      6195        52  POPC      H6X             5.5134641220      -30.8647659318        8.3677995300  MEMB      46              0.0000000000
      6196        52  POPC      H6Y             3.9093601552      -30.0705202725        8.6751938917  MEMB      46              0.0000000000
      6197        52  POPC      C37             3.8585937820      -32.1516579564        8.1112344679  MEMB      46              0.0000000000
      6198        52  POPC      H7X             2.8876625054      -32.3491304120        8.6138459465  MEMB      46              0.0000000000
      6199        52  POPC      H7Y             4.5301868988      -33.0208078883        8.2781531435  MEMB      46              0.0000000000
      6200        52  POPC      C38             3.5556008810      -31.7986837291        6.6211432748  MEMB      46              0.0000000000
      6201        52  POPC      H8X             3.0704290591      -30.8168938721        6.8082739765  MEMB      46              0.0000000000
      6202        52  POPC      H8Y             2.7634203760      -32.4974936749        6.2769986332  MEMB      46              0.0000000000
      6203        52  POPC      C39             4.7393401186      -31.8087284788        5.6842925485  MEMB      46              0.0000000000
      6204        52  POPC      H9X             5.0081004516      -32.8167807201        5.3022980694  MEMB      46              0.0000000000
      6205        52  POPC      H9Y             5.5812338773      -31.4320696507        6.3036985049  MEMB      46              0.0000000000
      6206        52  POPC      C310            4.7503557016      -30.9374475226        4.4460890567  MEMB      46              0.0000000000
      6207        52  POPC      H10X            5.5423763281      -31.2734340090        3.7431391868  MEMB      46              0.0000000000
      6208        52  POPC      H10Y            4.8998489975      -29.8647061765        4.6934726688  MEMB      46              0.0000000000
      6209        52  POPC      C311            3.5015089573      -31.1424947116        3.6038553942  MEMB      46              0.0000000000
      6210        52  POPC      H11X            3.4830086166      -30.4308062374        2.7509315513  MEMB      46              0.0000000000
      6211        52  POPC      H11Y            2.5591776687      -30.8577832313        4.1189011154  MEMB      46              0.0000000000
      6212        52  POPC      C312            3.1568501885      -32.5282337988        3.1293281627  MEMB      46              0.0000000000
      6213        52  POPC      H12X            3.2217194108      -33.2996921348        3.9261753008  MEMB      46              0.0000000000
      6214        52  POPC      H12Y            3.9610191798      -32.7561049976        2.3974085665  MEMB      46              0.0000000000
      6215        52  POPC      C313            1.6944947431      -32.5826520884        2.6253364889  MEMB      46              0.0000000000
      6216        52  POPC      H13X            1.0684278890      -32.1927979238        3.4562251472  MEMB      46              0.0000000000
      6217        52  POPC      H13Y            1.2680373917      -33.5792457904        2.3819110869  MEMB      46              0.0000000000
      6218        52  POPC      C314            1.3564310306      -31.9384555169        1.1788783709  MEMB      46              0.0000000000
      6219        52  POPC      H14X            1.9229683998      -32.6242928914        0.5133079301  MEMB      46              0.0000000000
      6220        52  POPC      H14Y            1.8370911827      -30.9368192287        1.1754098839  MEMB      46              0.0000000000
      6221        52  POPC      C315           -0.1054388941      -31.7587902770        0.8470970072  MEMB      46              0.0000000000
      6222        52  POPC      H15X           -0.5763122345      -32.7616483480        0.7641764432  MEMB      46              0.0000000000
      6223        52  POPC      H15Y           -0.1961248669      -31.2879883108       -0.1551203510  MEMB      46              0.0000000000
      6224        52  POPC      C316           -0.9404434486      -30.9324968516        1.7818798786  MEMB      46              0.0000000000
      6225        52  POPC      H16X           -1.1664469775      -31.4856225179        2.7185204266  MEMB      46              0.0000000000
      6226        52  POPC      H16Y           -1.9301162205      -30.7352622160        1.3171558559  MEMB      46              0.0000000000
      6227        52  POPC      H16Z           -0.4161110615      -30.0113669263        2.1149196083  MEMB      46              0.0000000000
      6228        53  POPC      N              11.6675544653      -27.8775018805       20.2049225616  MEMB      47              0.0000000000
      6229        53  POPC      C12            12.2542842496      -28.9233370306       19.3201328646  MEMB      47              0.0000000000
      6230        53  POPC      H12A           12.1623473473      -28.6373533460       18.2827511222  MEMB      47              0.0000000000
      6231        53  POPC      H12B           11.6010314440      -29.7831633343       19.3390915094  MEMB      47              0.0000000000
      6232        53  POPC      C13            11.3953006476      -28.4466851332       21.6001309652  MEMB      47              0.0000000000
      6233        53  POPC      H13A           12.2415913743      -28.9207124660       22.0749886715  MEMB      47              0.0000000000
      6234        53  POPC      H13B           11.1539986283      -27.6036578784       22.2305897825  MEMB      47              0.0000000000
      6235        53  POPC      H13C           10.4505437472      -28.9690747033       21.5694124283  MEMB      47              0.0000000000
      6236        53  POPC      C14            12.5364742220      -26.6402980493       20.2818985852  MEMB      47              0.0000000000
      6237        53  POPC      H14A           12.6295891417      -26.1845115261       19.3072251570  MEMB      47              0.0000000000
      6238        53  POPC      H14B           12.0433743467      -25.9550325129       20.9554443116  MEMB      47              0.0000000000
      6239        53  POPC      H14C           13.4483155418      -27.0480719763       20.6925879426  MEMB      47              0.0000000000
      6240        53  POPC      C15            10.3401073228      -27.4536033601       19.5840469650  MEMB      47              0.0000000000
      6241        53  POPC      H15A            9.6637384703      -28.2891267357       19.4799990523  MEMB      47              0.0000000000
      6242        53  POPC      H15B           10.3622930006      -27.0309860715       18.5904160487  MEMB      47              0.0000000000
      6243        53  POPC      H15C            9.8501987510      -26.7028079895       20.1862892806  MEMB      47              0.0000000000
      6244        53  POPC      C11            13.6472121545      -29.5814317943       19.4977570521  MEMB      47              0.0000000000
      6245        53  POPC      H11A           13.7723899052      -30.4603737991       18.8298403235  MEMB      47              0.0000000000
      6246        53  POPC      H11B           13.8055769709      -29.8750777839       20.5574803847  MEMB      47              0.0000000000
      6247        53  POPC      P              15.0783348533      -28.3278740744       17.6639497158  MEMB      47              0.0000000000
      6248        53  POPC      O13            14.4952347507      -29.3391215070       16.7512202165  MEMB      47              0.0000000000
      6249        53  POPC      O14            16.5291907047      -28.1392450143       17.6084310114  MEMB      47              0.0000000000
      6250        53  POPC      O12            14.5594960115      -28.5549910499       19.1424966351  MEMB      47              0.0000000000
      6251        53  POPC      O11            14.3198144174      -26.9646741088       17.3450134060  MEMB      47              0.0000000000
      6252        53  POPC      C1             14.6893500092      -25.6623228993       17.7119373749  MEMB      47              0.0000000000
      6253        53  POPC      HA             15.7008391274      -25.5369929519       18.1540947653  MEMB      47              0.0000000000
      6254        53  POPC      HB             13.9294318583      -25.3501057761       18.4598450818  MEMB      47              0.0000000000
      6255        53  POPC      C2             14.6649775525      -24.7136221634       16.4720343297  MEMB      47              0.0000000000
      6256        53  POPC      HS             14.7832993374      -23.6704797005       16.8355931413  MEMB      47              0.0000000000
      6257        53  POPC      O21            13.3483081305      -24.8386519639       15.8593541280  MEMB      47              0.0000000000
      6258        53  POPC      C21            12.2426332948      -24.4139916138       16.4266011995  MEMB      47              0.0000000000
      6259        53  POPC      O22            12.2933312960      -23.9391838868       17.5912533092  MEMB      47              0.0000000000
      6260        53  POPC      C22            11.0034658452      -24.6114275483       15.5318930182  MEMB      47              0.0000000000
      6261        53  POPC      H2R            11.4150953141      -24.1637741325       14.6021142184  MEMB      47              0.0000000000
      6262        53  POPC      H2S            10.0642635136      -24.2126388391       15.9714241078  MEMB      47              0.0000000000
      6263        53  POPC      C3             15.7043761508      -25.0015996803       15.2777415609  MEMB      47              0.0000000000
      6264        53  POPC      HX             16.7671797869      -24.9382838137       15.5951698561  MEMB      47              0.0000000000
      6265        53  POPC      HY             15.4123300105      -24.2179241006       14.5463847989  MEMB      47              0.0000000000
      6266        53  POPC      O31            15.4556688052      -26.3252248278       14.6806984329  MEMB      47              0.0000000000
      6267        53  POPC      C31            15.3860738217      -26.4541264209       13.3273382064  MEMB      47              0.0000000000
      6268        53  POPC      O32            15.7395263741      -25.6543734205       12.5112022668  MEMB      47              0.0000000000
      6269        53  POPC      C32            14.7217292563      -27.7278531783       13.0120060703  MEMB      47              0.0000000000
      6270        53  POPC      H2X            13.6653044031      -27.6400729678       13.3445449573  MEMB      47              0.0000000000
      6271        53  POPC      H2Y            15.2536079533      -28.5690963683       13.5057026732  MEMB      47              0.0000000000
      6272        53  POPC      C23            10.8556065913      -26.1389490298       15.3773084341  MEMB      47              0.0000000000
      6273        53  POPC      H3R            10.6848138267      -26.5224254102       16.4059466102  MEMB      47              0.0000000000
      6274        53  POPC      H3S            11.7915687140      -26.6066752153       15.0037735334  MEMB      47              0.0000000000
      6275        53  POPC      C24             9.6118325046      -26.4868005530       14.4353268271  MEMB      47              0.0000000000
      6276        53  POPC      H4R             8.8617539545      -25.7892563339       14.8656002771  MEMB      47              0.0000000000
      6277        53  POPC      H4S             9.3519791997      -27.5330734337       14.7038612155  MEMB      47              0.0000000000
      6278        53  POPC      C25             9.8221996945      -26.2552664521       12.9310753707  MEMB      47              0.0000000000
      6279        53  POPC      H5R            10.1935854449      -25.2089568820       12.8907019497  MEMB      47              0.0000000000
      6280        53  POPC      H5S             8.8756323046      -26.4160034848       12.3720631686  MEMB      47              0.0000000000
      6281        53  POPC      C26            10.8615798710      -27.1426271751       12.1762120209  MEMB      47              0.0000000000
      6282        53  POPC      H6R            10.9198477612      -28.1945099558       12.5290127194  MEMB      47              0.0000000000
      6283        53  POPC      H6S            11.7781838006      -26.6114335607       12.5108633009  MEMB      47              0.0000000000
      6284        53  POPC      C27            10.8622424766      -26.9673890146       10.6079842162  MEMB      47              0.0000000000
      6285        53  POPC      H7R             9.8623679517      -26.9821186470       10.1238827165  MEMB      47              0.0000000000
      6286        53  POPC      H7S            11.3588462216      -27.7778992123       10.0328508381  MEMB      47              0.0000000000
      6287        53  POPC      C28            11.5724183417      -25.6364740968       10.2707824081  MEMB      47              0.0000000000
      6288        53  POPC      H8R            12.6260859045      -25.9052743184       10.4984922053  MEMB      47              0.0000000000
      6289        53  POPC      H8S            11.2849592372      -24.8675985495       11.0194605347  MEMB      47              0.0000000000
      6290        53  POPC      C29            11.2165313197      -25.1580100490        8.9180993643  MEMB      47              0.0000000000
      6291        53  POPC      H91            10.1553220475      -25.1586138553        8.6285585785  MEMB      47              0.0000000000
      6292        53  POPC      C210           12.0995856291      -24.6744495689        7.9986583652  MEMB      47              0.0000000000
      6293        53  POPC      H101           11.6535948741      -24.3798964175        7.0372363346  MEMB      47              0.0000000000
      6294        53  POPC      C211           13.5962310857      -24.5486753687        8.2192838751  MEMB      47              0.0000000000
      6295        53  POPC      H11R           13.8509564838      -24.2214443092        9.2499900639  MEMB      47              0.0000000000
      6296        53  POPC      H11S           13.8944735374      -23.5846318719        7.7545333687  MEMB      47              0.0000000000
      6297        53  POPC      C212           14.4068038774      -25.7142038422        7.6546450011  MEMB      47              0.0000000000
      6298        53  POPC      H12R           14.2173185395      -25.6258171461        6.5634969209  MEMB      47              0.0000000000
      6299        53  POPC      H12S           13.8875832059      -26.6586382363        7.9244130842  MEMB      47              0.0000000000
      6300        53  POPC      C213           15.8620839477      -25.6080838412        8.0391815572  MEMB      47              0.0000000000
      6301        53  POPC      H13R           15.9719590123      -25.7103094061        9.1399986722  MEMB      47              0.0000000000
      6302        53  POPC      H13S           16.2548085679      -24.6305933423        7.6861931749  MEMB      47              0.0000000000
      6303        53  POPC      C214           16.7392937102      -26.6181606738        7.3922664457  MEMB      47              0.0000000000
      6304        53  POPC      H14R           16.5272163082      -27.6147139061        7.8352395030  MEMB      47              0.0000000000
      6305        53  POPC      H14S           17.8052838761      -26.3117640765        7.4563530927  MEMB      47              0.0000000000
      6306        53  POPC      C215           16.5123227881      -26.8318101965        5.8563115244  MEMB      47              0.0000000000
      6307        53  POPC      H15R           15.4834841614      -27.1865626232        5.6327879231  MEMB      47              0.0000000000
      6308        53  POPC      H15S           17.1998362900      -27.6445350260        5.5383112099  MEMB      47              0.0000000000
      6309        53  POPC      C216           16.7860600617      -25.5975546149        5.0103776584  MEMB      47              0.0000000000
      6310        53  POPC      H16R           17.5088128590      -24.9401715952        5.5393356281  MEMB      47              0.0000000000
      6311        53  POPC      H16S           15.8687800147      -25.0001880994        4.8204525262  MEMB      47              0.0000000000
      6312        53  POPC      C217           17.2709456720      -25.6487146741        3.5768739651  MEMB      47              0.0000000000
      6313        53  POPC      H17R           18.2597863835      -26.1530938460        3.6228756001  MEMB      47              0.0000000000
      6314        53  POPC      H17S           17.5811878397      -24.6393001068        3.2316874525  MEMB      47              0.0000000000
      6315        53  POPC      C218           16.3971142806      -26.3384011978        2.5370313271  MEMB      47              0.0000000000
      6316        53  POPC      H18R           15.3962286225      -25.8580626055        2.4943283188  MEMB      47              0.0000000000
      6317        53  POPC      H18S           16.2653222792      -27.3787062163        2.9040720106  MEMB      47              0.0000000000
      6318        53  POPC      H18T           16.8980393485      -26.5184375512        1.5618496573  MEMB      47              0.0000000000
      6319        53  POPC      C33            14.7271299965      -28.0408123603       11.5703121125  MEMB      47              0.0000000000
      6320        53  POPC      H3X            15.7988615410      -28.2158326123       11.3356195936  MEMB      47              0.0000000000
      6321        53  POPC      H3Y            14.3193853149      -27.1879899724       10.9865666316  MEMB      47              0.0000000000
      6322        53  POPC      C34            13.9379046603      -29.2895800024       11.2322810173  MEMB      47              0.0000000000
      6323        53  POPC      H4X            12.8970672291      -29.1769537643       11.6041595038  MEMB      47              0.0000000000
      6324        53  POPC      H4Y            14.4024521980      -30.1675340788       11.7299889489  MEMB      47              0.0000000000
      6325        53  POPC      C35            13.9936948262      -29.6352806857        9.7474766171  MEMB      47              0.0000000000
      6326        53  POPC      H5X            15.0716804667      -29.8709347868        9.6181128963  MEMB      47              0.0000000000
      6327        53  POPC      H5Y            13.6570782044      -28.8031383731        9.0928398248  MEMB      47              0.0000000000
      6328        53  POPC      C36            13.1048805648      -30.8923000773        9.4821932202  MEMB      47              0.0000000000
      6329        53  POPC      H6X            12.0923147049      -30.5753288611        9.8116782630  MEMB      47              0.0000000000
      6330        53  POPC      H6Y            13.4634293080      -31.6580165542       10.2029162383  MEMB      47              0.0000000000
      6331        53  POPC      C37            13.3004567912      -31.4340512529        8.0654073850  MEMB      47              0.0000000000
      6332        53  POPC      H7X            13.0321755737      -32.5113503995        8.1075119210  MEMB      47              0.0000000000
      6333        53  POPC      H7Y            14.3294030207      -31.2935369779        7.6706336492  MEMB      47              0.0000000000
      6334        53  POPC      C38            12.4576192708      -30.7960105970        6.8893353505  MEMB      47              0.0000000000
      6335        53  POPC      H8X            11.3858579297      -31.0165582418        7.0817074620  MEMB      47              0.0000000000
      6336        53  POPC      H8Y            12.7326312494      -31.3937358388        5.9941179883  MEMB      47              0.0000000000
      6337        53  POPC      C39            12.6455756867      -29.2778843891        6.5663308780  MEMB      47              0.0000000000
      6338        53  POPC      H9X            13.7248848269      -29.0197606558        6.6191022511  MEMB      47              0.0000000000
      6339        53  POPC      H9Y            12.1904809370      -28.5984829157        7.3184099774  MEMB      47              0.0000000000
      6340        53  POPC      C310           12.1932843828      -28.9012141841        5.1539824099  MEMB      47              0.0000000000
      6341        53  POPC      H10X           12.1816576346      -27.7945724106        5.0563630341  MEMB      47              0.0000000000
      6342        53  POPC      H10Y           11.1895933941      -29.3192415807        4.9255559464  MEMB      47              0.0000000000
      6343        53  POPC      C311           13.1607104136      -29.4801852657        4.0380950028  MEMB      47              0.0000000000
      6344        53  POPC      H11X           13.3841845609      -30.5665383150        4.1030371759  MEMB      47              0.0000000000
      6345        53  POPC      H11Y           14.1587832695      -29.0160152635        4.1888202452  MEMB      47              0.0000000000
      6346        53  POPC      C312           12.9701316536      -29.0110614712        2.5777313318  MEMB      47              0.0000000000
      6347        53  POPC      H12X           13.8153908555      -29.3373188933        1.9347587109  MEMB      47              0.0000000000
      6348        53  POPC      H12Y           12.8348260614      -27.9114446879        2.4949300610  MEMB      47              0.0000000000
      6349        53  POPC      C313           11.7264929047      -29.5584119745        1.9611296209  MEMB      47              0.0000000000
      6350        53  POPC      H13X           10.9164221477      -29.1121017286        2.5766884627  MEMB      47              0.0000000000
      6351        53  POPC      H13Y           11.6617128256      -30.6654977248        2.0281029895  MEMB      47              0.0000000000
      6352        53  POPC      C314           11.4471455508      -28.9757487340        0.5898832345  MEMB      47              0.0000000000
      6353        53  POPC      H14X           10.4787828973      -29.3115960974        0.1611629017  MEMB      47              0.0000000000
      6354        53  POPC      H14Y           12.1800665734      -29.2709946883       -0.1911279679  MEMB      47              0.0000000000
      6355        53  POPC      C315           11.2881234479      -27.4475271671        0.4901215368  MEMB      47              0.0000000000
      6356        53  POPC      H15X           12.3595243379      -27.1655086452        0.5731096065  MEMB      47              0.0000000000
      6357        53  POPC      H15Y           10.6753338382      -27.0374430972        1.3211705811  MEMB      47              0.0000000000
      6358        53  POPC      C316           10.7054968439      -27.0236287450       -0.8870359271  MEMB      47              0.0000000000
      6359        53  POPC      H16X           10.5515896535      -25.9302926681       -1.0105243810  MEMB      47              0.0000000000
      6360        53  POPC      H16Y            9.6859568478      -27.4448066414       -1.0192027270  MEMB      47              0.0000000000
      6361        53  POPC      H16Z           11.3501228853      -27.3810773042       -1.7183045464  MEMB      47              0.0000000000
      6362        54  POPC      N             -29.4365398934        5.9459333427       19.8350914172  MEMB      48              0.0000000000
      6363        54  POPC      C12           -29.4928484916        4.4507694955       19.6375154618  MEMB      48              0.0000000000
      6364        54  POPC      H12A          -29.5518204477        3.8888154792       20.5579121563  MEMB      48              0.0000000000
      6365        54  POPC      H12B          -28.5303792291        4.1938875076       19.2203050368  MEMB      48              0.0000000000
      6366        54  POPC      C13           -30.5619260460        6.3555109221       20.7166096170  MEMB      48              0.0000000000
      6367        54  POPC      H13A          -30.4200216644        7.3520872864       21.1078884694  MEMB      48              0.0000000000
      6368        54  POPC      H13B          -31.4902176083        6.3021197202       20.1672243423  MEMB      48              0.0000000000
      6369        54  POPC      H13C          -30.5555030888        5.8299863772       21.6601046198  MEMB      48              0.0000000000
      6370        54  POPC      C14           -28.1056645494        6.2827979536       20.5670498263  MEMB      48              0.0000000000
      6371        54  POPC      H14A          -27.1961370273        6.3083049469       19.9852342622  MEMB      48              0.0000000000
      6372        54  POPC      H14B          -28.1756241829        7.2982297285       20.9281652083  MEMB      48              0.0000000000
      6373        54  POPC      H14C          -27.9209325984        5.6123702181       21.3933674824  MEMB      48              0.0000000000
      6374        54  POPC      C15           -29.3903501595        6.7677028958       18.5514872155  MEMB      48              0.0000000000
      6375        54  POPC      H15A          -28.4281345795        6.5391539459       18.1175440191  MEMB      48              0.0000000000
      6376        54  POPC      H15B          -29.4601211995        7.8164320513       18.7998799889  MEMB      48              0.0000000000
      6377        54  POPC      H15C          -30.1970286558        6.4912084281       17.8887499497  MEMB      48              0.0000000000
      6378        54  POPC      C11           -30.6297108035        3.9468623770       18.6220519768  MEMB      48              0.0000000000
      6379        54  POPC      H11A          -30.3389986508        2.8813133646       18.5019984706  MEMB      48              0.0000000000
      6380        54  POPC      H11B          -30.4798958351        4.4534748196       17.6446982558  MEMB      48              0.0000000000
      6381        54  POPC      P             -33.1668855186        3.7674420098       18.2187539726  MEMB      48              0.0000000000
      6382        54  POPC      O13           -34.2808375157        4.4263971916       18.9098469992  MEMB      48              0.0000000000
      6383        54  POPC      O14           -33.3052980083        2.3370347308       17.8722114310  MEMB      48              0.0000000000
      6384        54  POPC      O12           -31.8852386951        4.0683140414       19.1925834609  MEMB      48              0.0000000000
      6385        54  POPC      O11           -32.8409439680        4.5571365949       16.8767986262  MEMB      48              0.0000000000
      6386        54  POPC      C1            -33.2439584567        5.9291834567       16.7006847897  MEMB      48              0.0000000000
      6387        54  POPC      HA            -32.8026458103        6.4368186212       17.5849192696  MEMB      48              0.0000000000
      6388        54  POPC      HB            -34.3304805960        6.0095765181       16.9182342515  MEMB      48              0.0000000000
      6389        54  POPC      C2            -32.8574388100        6.3257206244       15.3185171677  MEMB      48              0.0000000000
      6390        54  POPC      HS            -33.2398822596        5.4933299615       14.6898806120  MEMB      48              0.0000000000
      6391        54  POPC      O21           -31.3757784664        6.3827777491       15.2839191189  MEMB      48              0.0000000000
      6392        54  POPC      C21           -30.7423467146        5.5563049125       14.3557502820  MEMB      48              0.0000000000
      6393        54  POPC      O22           -31.3735960587        4.7339483725       13.6868282412  MEMB      48              0.0000000000
      6394        54  POPC      C22           -29.2246217085        5.6617953844       14.3923819718  MEMB      48              0.0000000000
      6395        54  POPC      H2R           -28.7275476977        5.4083404072       15.3531102564  MEMB      48              0.0000000000
      6396        54  POPC      H2S           -28.9773064287        6.7402680729       14.2921190996  MEMB      48              0.0000000000
      6397        54  POPC      C3            -33.3628896106        7.7494575081       14.9389714774  MEMB      48              0.0000000000
      6398        54  POPC      HX            -33.0595853359        8.4232175135       15.7686549682  MEMB      48              0.0000000000
      6399        54  POPC      HY            -34.4526488628        7.5917615828       14.7910605159  MEMB      48              0.0000000000
      6400        54  POPC      O31           -32.6765382319        8.2950316000       13.7105213450  MEMB      48              0.0000000000
      6401        54  POPC      C31           -33.2194837054        7.9581782251       12.5102750968  MEMB      48              0.0000000000
      6402        54  POPC      O32           -34.2032024614        7.2345783797       12.4046447370  MEMB      48              0.0000000000
      6403        54  POPC      C32           -32.4135491832        8.6723588843       11.4158245309  MEMB      48              0.0000000000
      6404        54  POPC      H2X           -31.3782528357        8.2983962399       11.5662713273  MEMB      48              0.0000000000
      6405        54  POPC      H2Y           -32.3370291281        9.7518147456       11.6673006089  MEMB      48              0.0000000000
      6406        54  POPC      C23           -28.5881984448        4.9105457685       13.1802955435  MEMB      48              0.0000000000
      6407        54  POPC      H3R           -29.1723102082        4.0920987010       12.7077716670  MEMB      48              0.0000000000
      6408        54  POPC      H3S           -27.6347618511        4.4366531419       13.4976361835  MEMB      48              0.0000000000
      6409        54  POPC      C24           -28.0832818737        5.8050494566       12.0387095208  MEMB      48              0.0000000000
      6410        54  POPC      H4R           -27.6224043313        6.7272857622       12.4527058801  MEMB      48              0.0000000000
      6411        54  POPC      H4S           -29.0400069629        6.0990588257       11.5564681310  MEMB      48              0.0000000000
      6412        54  POPC      C25           -27.1801778952        4.9497849866       11.1559755027  MEMB      48              0.0000000000
      6413        54  POPC      H5R           -27.6956701504        3.9674358222       11.0961537585  MEMB      48              0.0000000000
      6414        54  POPC      H5S           -26.1907562085        4.8108218152       11.6418308298  MEMB      48              0.0000000000
      6415        54  POPC      C26           -27.1457826253        5.7341251369        9.8774554621  MEMB      48              0.0000000000
      6416        54  POPC      H6R           -26.8087866130        6.7644840531       10.1205917883  MEMB      48              0.0000000000
      6417        54  POPC      H6S           -28.1343678698        5.8838108851        9.3930859754  MEMB      48              0.0000000000
      6418        54  POPC      C27           -26.1999604594        5.1643395962        8.7813726580  MEMB      48              0.0000000000
      6419        54  POPC      H7R           -26.4164609725        4.0751830587        8.8158160262  MEMB      48              0.0000000000
      6420        54  POPC      H7S           -25.1091925635        5.2828579990        8.9560142299  MEMB      48              0.0000000000
      6421        54  POPC      C28           -26.6643494297        5.5819573440        7.3447764026  MEMB      48              0.0000000000
      6422        54  POPC      H8R           -26.2969917228        6.6039681550        7.1105475384  MEMB      48              0.0000000000
      6423        54  POPC      H8S           -27.7740652876        5.6328307582        7.3609964678  MEMB      48              0.0000000000
      6424        54  POPC      C29           -26.0514617357        4.6960284924        6.2582361138  MEMB      48              0.0000000000
      6425        54  POPC      H91           -24.9796953221        4.4974307351        6.4061400942  MEMB      48              0.0000000000
      6426        54  POPC      C210          -26.6741648053        3.9912115609        5.2695189230  MEMB      48              0.0000000000
      6427        54  POPC      H101          -26.1212193609        3.2535733397        4.6694017253  MEMB      48              0.0000000000
      6428        54  POPC      C211          -28.2179354277        3.9956994158        5.0148022389  MEMB      48              0.0000000000
      6429        54  POPC      H11R          -28.4798143765        3.6210777829        4.0021824178  MEMB      48              0.0000000000
      6430        54  POPC      H11S          -28.6310874675        5.0269431730        5.0020474076  MEMB      48              0.0000000000
      6431        54  POPC      C212          -28.9552042282        3.1036726657        6.0565841627  MEMB      48              0.0000000000
      6432        54  POPC      H12R          -28.6381766577        3.5207084435        7.0363274795  MEMB      48              0.0000000000
      6433        54  POPC      H12S          -28.6743265525        2.0288641104        6.0419037130  MEMB      48              0.0000000000
      6434        54  POPC      C213          -30.4872567398        3.1984188336        6.0016247213  MEMB      48              0.0000000000
      6435        54  POPC      H13R          -30.8990600564        2.8358040938        6.9676727344  MEMB      48              0.0000000000
      6436        54  POPC      H13S          -30.7580567931        2.5101252948        5.1726244961  MEMB      48              0.0000000000
      6437        54  POPC      C214          -31.1007646723        4.5262809124        5.6507182044  MEMB      48              0.0000000000
      6438        54  POPC      H14R          -30.6193626391        4.7761194555        4.6811026870  MEMB      48              0.0000000000
      6439        54  POPC      H14S          -30.8187470337        5.2187111591        6.4725011857  MEMB      48              0.0000000000
      6440        54  POPC      C215          -32.6347347845        4.4996579421        5.5500153662  MEMB      48              0.0000000000
      6441        54  POPC      H15R          -33.1062036450        5.4851134226        5.3477402869  MEMB      48              0.0000000000
      6442        54  POPC      H15S          -32.9968608208        4.2044860794        6.5580135280  MEMB      48              0.0000000000
      6443        54  POPC      C216          -33.3036249373        3.6227399638        4.4362204659  MEMB      48              0.0000000000
      6444        54  POPC      H16R          -34.3875208545        3.7458646771        4.6467698456  MEMB      48              0.0000000000
      6445        54  POPC      H16S          -33.1202930360        2.5308599699        4.5284622403  MEMB      48              0.0000000000
      6446        54  POPC      C217          -33.0828073600        4.0383959203        2.9951536814  MEMB      48              0.0000000000
      6447        54  POPC      H17R          -32.1345986695        3.5639437483        2.6633165317  MEMB      48              0.0000000000
      6448        54  POPC      H17S          -32.8743221921        5.1293413889        2.9688283267  MEMB      48              0.0000000000
      6449        54  POPC      C218          -34.3110300637        3.7167640490        2.0797794096  MEMB      48              0.0000000000
      6450        54  POPC      H18R          -35.2619293279        4.0259817732        2.5640268497  MEMB      48              0.0000000000
      6451        54  POPC      H18S          -34.4373351162        2.6300869962        1.8861277922  MEMB      48              0.0000000000
      6452        54  POPC      H18T          -34.2528904051        4.1676272906        1.0660427800  MEMB      48              0.0000000000
      6453        54  POPC      C33           -33.0096344760        8.5775982560       10.0034107802  MEMB      48              0.0000000000
      6454        54  POPC      H3X           -34.0517641847        8.9570232675       10.0691647147  MEMB      48              0.0000000000
      6455        54  POPC      H3Y           -33.0116938212        7.4826868660        9.8150346158  MEMB      48              0.0000000000
      6456        54  POPC      C34           -32.1755462836        9.1924484381        8.8472959140  MEMB      48              0.0000000000
      6457        54  POPC      H4X           -31.2007222881        8.6711402633        8.7364940379  MEMB      48              0.0000000000
      6458        54  POPC      H4Y           -31.9466539347       10.2233949270        9.1923737679  MEMB      48              0.0000000000
      6459        54  POPC      C35           -32.9891798769        9.2683144727        7.4784144833  MEMB      48              0.0000000000
      6460        54  POPC      H5X           -34.0018680554        9.6788255262        7.6790725450  MEMB      48              0.0000000000
      6461        54  POPC      H5Y           -33.1041347393        8.2417921105        7.0693192786  MEMB      48              0.0000000000
      6462        54  POPC      C36           -32.3609999758       10.2107949673        6.4892630564  MEMB      48              0.0000000000
      6463        54  POPC      H6X           -31.2655669083       10.0279017481        6.5192180401  MEMB      48              0.0000000000
      6464        54  POPC      H6Y           -32.4516136410       11.2620181252        6.8371714034  MEMB      48              0.0000000000
      6465        54  POPC      C37           -32.9469908586       10.2475268599        5.0773989273  MEMB      48              0.0000000000
      6466        54  POPC      H7X           -32.4910649876       11.0382537899        4.4439934414  MEMB      48              0.0000000000
      6467        54  POPC      H7Y           -33.9640228272       10.6868451675        4.9939332812  MEMB      48              0.0000000000
      6468        54  POPC      C38           -33.0012654957        8.9457153755        4.3149471636  MEMB      48              0.0000000000
      6469        54  POPC      H8X           -33.5154123896        8.0993579474        4.8185882619  MEMB      48              0.0000000000
      6470        54  POPC      H8Y           -31.9556617906        8.5828015909        4.2183703363  MEMB      48              0.0000000000
      6471        54  POPC      C39           -33.4811517838        9.0520437512        2.8711247954  MEMB      48              0.0000000000
      6472        54  POPC      H9X           -33.0064937479        9.9824468377        2.4924809187  MEMB      48              0.0000000000
      6473        54  POPC      H9Y           -34.5432730598        9.3696359984        2.7979542376  MEMB      48              0.0000000000
      6474        54  POPC      C310          -33.3187589038        7.7321935712        2.1296981937  MEMB      48              0.0000000000
      6475        54  POPC      H10X          -34.0446735785        6.9620371981        2.4676756780  MEMB      48              0.0000000000
      6476        54  POPC      H10Y          -32.2993918081        7.3190831645        2.2863868115  MEMB      48              0.0000000000
      6477        54  POPC      C311          -33.5244197097        7.8845509960        0.6972121954  MEMB      48              0.0000000000
      6478        54  POPC      H11X          -32.8203098180        8.6801505872        0.3722949902  MEMB      48              0.0000000000
      6479        54  POPC      H11Y          -34.5394511767        8.2792005809        0.4774756912  MEMB      48              0.0000000000
      6480        54  POPC      C312          -33.2554650118        6.6187621876       -0.2852533520  MEMB      48              0.0000000000
      6481        54  POPC      H12X          -34.2845899747        6.2837399496       -0.5362171774  MEMB      48              0.0000000000
      6482        54  POPC      H12Y          -32.7576941127        5.7404889864        0.1786228278  MEMB      48              0.0000000000
      6483        54  POPC      C313          -32.4524321737        6.9625764536       -1.5738012549  MEMB      48              0.0000000000
      6484        54  POPC      H13X          -31.6444810341        7.6370308794       -1.2179249588  MEMB      48              0.0000000000
      6485        54  POPC      H13Y          -33.0318495882        7.4795376759       -2.3683735592  MEMB      48              0.0000000000
      6486        54  POPC      C314          -31.8036795930        5.6253862032       -2.1986147845  MEMB      48              0.0000000000
      6487        54  POPC      H14X          -31.4993457555        5.8235662409       -3.2485806141  MEMB      48              0.0000000000
      6488        54  POPC      H14Y          -32.6109614195        4.8734457523       -2.0674592594  MEMB      48              0.0000000000
      6489        54  POPC      C315          -30.5107322609        5.3090424412       -1.4199841894  MEMB      48              0.0000000000
      6490        54  POPC      H15X          -30.7205853671        5.3270503160       -0.3291334192  MEMB      48              0.0000000000
      6491        54  POPC      H15Y          -29.7192784194        6.0788612901       -1.5436825982  MEMB      48              0.0000000000
      6492        54  POPC      C316          -29.9428293704        3.9660386089       -1.8932142225  MEMB      48              0.0000000000
      6493        54  POPC      H16X          -30.4701790636        3.0381152517       -1.5846983728  MEMB      48              0.0000000000
      6494        54  POPC      H16Y          -28.9060096499        3.7669637262       -1.5472449882  MEMB      48              0.0000000000
      6495        54  POPC      H16Z          -29.8441529158        4.0273912925       -2.9981219088  MEMB      48              0.0000000000
      6496        55  POPS      N              14.9657088850       29.0823366800       21.1468864094  MEMB      49              0.0000000000
      6497        55  POPS      HN1            15.0557172508       29.8832973845       21.8041234548  MEMB      49              0.0000000000
      6498        55  POPS      HN2            14.3413993180       29.4243303102       20.3886794398  MEMB      49              0.0000000000
      6499        55  POPS      HN3            14.5645583516       28.2622794134       21.6450674776  MEMB      49              0.0000000000
      6500        55  POPS      C12            16.2700413144       28.8514577033       20.4190218513  MEMB      49              0.0000000000
      6501        55  POPS      H12A           16.9224902708       28.2735747585       21.0568004976  MEMB      49              0.0000000000
      6502        55  POPS      C13            17.1137915699       30.0858527084       20.1977065826  MEMB      49              0.0000000000
      6503        55  POPS      O13A           16.6704372380       31.1413523907       20.7711817390  MEMB      49              0.0000000000
      6504        55  POPS      O13B           18.2187108310       30.1199965619       19.5752126375  MEMB      49              0.0000000000
      6505        55  POPS      C11            15.9503807152       28.1140801783       19.0488911720  MEMB      49              0.0000000000
      6506        55  POPS      H11A           15.5698443922       27.0757834692       19.1559100576  MEMB      49              0.0000000000
      6507        55  POPS      H11B           16.9462732459       27.8969450187       18.6068829784  MEMB      49              0.0000000000
      6508        55  POPS      P              13.7679758891       28.4391905382       17.5421241836  MEMB      49              0.0000000000
      6509        55  POPS      O13            12.8348340047       27.8401948087       18.5592128058  MEMB      49              0.0000000000
      6510        55  POPS      O14            14.0107862599       27.7518213664       16.2613054075  MEMB      49              0.0000000000
      6511        55  POPS      O12            15.1727881220       28.8561071561       18.1758934041  MEMB      49              0.0000000000
      6512        55  POPS      O11            13.4143327030       29.9739440786       17.3025637549  MEMB      49              0.0000000000
      6513        55  POPS      C1             12.1917687807       30.6227338330       17.4788423907  MEMB      49              0.0000000000
      6514        55  POPS      HA             11.9918594080       30.8073124808       18.5560090490  MEMB      49              0.0000000000
      6515        55  POPS      HB             11.4172360084       29.9817088135       17.0060772366  MEMB      49              0.0000000000
      6516        55  POPS      C2             12.0969294887       31.9293870990       16.7078758945  MEMB      49              0.0000000000
      6517        55  POPS      HS             11.0112317901       32.1445678833       16.6115491389  MEMB      49              0.0000000000
      6518        55  POPS      O21            12.7313727986       31.8713529862       15.4137553076  MEMB      49              0.0000000000
      6519        55  POPS      C21            12.0231043232       31.5020008199       14.2952095631  MEMB      49              0.0000000000
      6520        55  POPS      O22            10.8261684216       31.2618896680       14.3318493689  MEMB      49              0.0000000000
      6521        55  POPS      C22            13.0293773001       31.6696553510       13.0769936318  MEMB      49              0.0000000000
      6522        55  POPS      H2R            13.6528554520       30.7508529801       13.1143901321  MEMB      49              0.0000000000
      6523        55  POPS      H2S            13.5935808485       32.6201509956       13.1890356108  MEMB      49              0.0000000000
      6524        55  POPS      C3             12.7696599202       33.1165866458       17.5998175865  MEMB      49              0.0000000000
      6525        55  POPS      HX             12.1592579158       33.1289937719       18.5280290961  MEMB      49              0.0000000000
      6526        55  POPS      HY             12.7328642967       34.0639113259       17.0205563806  MEMB      49              0.0000000000
      6527        55  POPS      O31            14.0804676256       32.8320190877       17.9550727034  MEMB      49              0.0000000000
      6528        55  POPS      C31            15.0718598190       33.4863990441       17.3644552241  MEMB      49              0.0000000000
      6529        55  POPS      O32            15.0539851110       34.5921174251       16.8360241957  MEMB      49              0.0000000000
      6530        55  POPS      C32            16.4471012919       32.6925927022       17.5835978249  MEMB      49              0.0000000000
      6531        55  POPS      H2X            16.2517083557       31.8819977777       18.3178174894  MEMB      49              0.0000000000
      6532        55  POPS      H2Y            17.1109075731       33.4561911450       18.0425086824  MEMB      49              0.0000000000
      6533        55  POPS      C23            12.2044012604       31.7356258974       11.8041064683  MEMB      49              0.0000000000
      6534        55  POPS      H3R            11.5775105126       32.6524649757       11.8312176672  MEMB      49              0.0000000000
      6535        55  POPS      H3S            11.5871527953       30.8286899691       11.6286275906  MEMB      49              0.0000000000
      6536        55  POPS      C24            13.0506729097       31.8818923327       10.4686930759  MEMB      49              0.0000000000
      6537        55  POPS      H4R            13.6865357152       30.9758741371       10.3731391651  MEMB      49              0.0000000000
      6538        55  POPS      H4S            13.7927500829       32.7083635880       10.4444518074  MEMB      49              0.0000000000
      6539        55  POPS      C25            12.1615932507       31.9006411226        9.1534242754  MEMB      49              0.0000000000
      6540        55  POPS      H5R            11.5049510824       32.7908777374        9.2564810476  MEMB      49              0.0000000000
      6541        55  POPS      H5S            11.5942590984       30.9463593929        9.1110100742  MEMB      49              0.0000000000
      6542        55  POPS      C26            13.1434442797       31.8265236791        7.8860556240  MEMB      49              0.0000000000
      6543        55  POPS      H6R            13.3766589906       30.7469555143        7.7657872145  MEMB      49              0.0000000000
      6544        55  POPS      H6S            14.1520830954       32.2566796497        8.0647575236  MEMB      49              0.0000000000
      6545        55  POPS      C27            12.5540691377       32.5824545205        6.6702238319  MEMB      49              0.0000000000
      6546        55  POPS      H7R            13.4272275878       32.5558493583        5.9837784123  MEMB      49              0.0000000000
      6547        55  POPS      H7S            12.4707791091       33.6266929396        7.0402917985  MEMB      49              0.0000000000
      6548        55  POPS      C28            11.1466401025       32.0618518395        5.9690326324  MEMB      49              0.0000000000
      6549        55  POPS      H8R            10.9554100607       32.7345560467        5.1057709530  MEMB      49              0.0000000000
      6550        55  POPS      H8S            10.3493480605       32.2215763335        6.7260898246  MEMB      49              0.0000000000
      6551        55  POPS      C29            11.0731687039       30.6101677145        5.6428122042  MEMB      49              0.0000000000
      6552        55  POPS      H91            11.8951700009       29.9447890735        5.9454419699  MEMB      49              0.0000000000
      6553        55  POPS      C210           10.0336194331       30.1805649594        4.8912723724  MEMB      49              0.0000000000
      6554        55  POPS      H101           10.0705796738       29.1147366615        4.6217472456  MEMB      49              0.0000000000
      6555        55  POPS      C211            8.8289536227       30.8930807424        4.2733286224  MEMB      49              0.0000000000
      6556        55  POPS      H11R            8.9691118898       31.9649788904        4.5296705454  MEMB      49              0.0000000000
      6557        55  POPS      H11S            7.8043493232       30.5588163541        4.5430950349  MEMB      49              0.0000000000
      6558        55  POPS      C212            9.0065426383       30.9726523006        2.7551431373  MEMB      49              0.0000000000
      6559        55  POPS      H12R            8.3627827249       31.7122656672        2.2327777334  MEMB      49              0.0000000000
      6560        55  POPS      H12S            8.7048194701       30.0024061479        2.3058038194  MEMB      49              0.0000000000
      6561        55  POPS      C213           10.3664271006       31.2726684337        2.1453294608  MEMB      49              0.0000000000
      6562        55  POPS      H13R           11.1604686972       30.6832630796        2.6517085967  MEMB      49              0.0000000000
      6563        55  POPS      H13S           10.5609146621       32.3568021397        2.2907573872  MEMB      49              0.0000000000
      6564        55  POPS      C214           10.5292776216       31.1052925817        0.6142010658  MEMB      49              0.0000000000
      6565        55  POPS      H14R            9.7139190070       31.7066904559        0.1583153052  MEMB      49              0.0000000000
      6566        55  POPS      H14S           10.3290617068       30.0274641833        0.4338677209  MEMB      49              0.0000000000
      6567        55  POPS      C215           11.8614329649       31.5888796755       -0.0495425039  MEMB      49              0.0000000000
      6568        55  POPS      H15R           12.1118233699       32.6414153767        0.2030320770  MEMB      49              0.0000000000
      6569        55  POPS      H15S           11.6845282098       31.4813688384       -1.1410861343  MEMB      49              0.0000000000
      6570        55  POPS      C216           13.1284255250       30.7945396849        0.3326592529  MEMB      49              0.0000000000
      6571        55  POPS      H16R           12.7957900058       29.7827668956        0.6488725055  MEMB      49              0.0000000000
      6572        55  POPS      H16S           13.6425130145       31.0641553584        1.2799411894  MEMB      49              0.0000000000
      6573        55  POPS      C217           14.2347793960       30.5432037880       -0.7285786240  MEMB      49              0.0000000000
      6574        55  POPS      H17R           13.7424066352       30.2459455663       -1.6791189225  MEMB      49              0.0000000000
      6575        55  POPS      H17S           14.9462218832       29.7443812965       -0.4284893727  MEMB      49              0.0000000000
      6576        55  POPS      C218           15.0268407795       31.8013587941       -1.2124731713  MEMB      49              0.0000000000
      6577        55  POPS      H18R           14.2639969366       32.4769429905       -1.6551657971  MEMB      49              0.0000000000
      6578        55  POPS      H18S           15.8899123048       31.6036393028       -1.8835427004  MEMB      49              0.0000000000
      6579        55  POPS      H18T           15.5536686443       32.3273287619       -0.3877739737  MEMB      49              0.0000000000
      6580        55  POPS      C33            17.0565263750       32.3150921588       16.1980407964  MEMB      49              0.0000000000
      6581        55  POPS      H3X            18.0954918546       31.9916411646       16.4222090743  MEMB      49              0.0000000000
      6582        55  POPS      H3Y            17.0466959916       33.2375382041       15.5789144859  MEMB      49              0.0000000000
      6583        55  POPS      C34            16.3296757619       31.1299699365       15.6143537518  MEMB      49              0.0000000000
      6584        55  POPS      H4X            15.2645213722       31.3342322401       15.8552772911  MEMB      49              0.0000000000
      6585        55  POPS      H4Y            16.7220352579       30.1994976655       16.0775991269  MEMB      49              0.0000000000
      6586        55  POPS      C35            16.3057023613       30.8249973869       14.0813989818  MEMB      49              0.0000000000
      6587        55  POPS      H5X            16.0565024724       31.7776160982       13.5668722091  MEMB      49              0.0000000000
      6588        55  POPS      H5Y            15.4995710633       30.0950668017       13.8540788600  MEMB      49              0.0000000000
      6589        55  POPS      C36            17.5319148639       30.1160247412       13.5194691855  MEMB      49              0.0000000000
      6590        55  POPS      H6X            17.8719354358       29.2200167234       14.0814980166  MEMB      49              0.0000000000
      6591        55  POPS      H6Y            18.4552702099       30.7303872464       13.5850027149  MEMB      49              0.0000000000
      6592        55  POPS      C37            17.1874914290       29.6265332612       12.0895736673  MEMB      49              0.0000000000
      6593        55  POPS      H7X            18.0662757808       29.0996416789       11.6601045139  MEMB      49              0.0000000000
      6594        55  POPS      H7Y            16.8570241329       30.5351159901       11.5422256354  MEMB      49              0.0000000000
      6595        55  POPS      C38            16.1702866918       28.4703879473       11.9142225700  MEMB      49              0.0000000000
      6596        55  POPS      H8X            15.1365645377       28.8474151876       12.0678127554  MEMB      49              0.0000000000
      6597        55  POPS      H8Y            16.3569968576       27.7203620260       12.7122959484  MEMB      49              0.0000000000
      6598        55  POPS      C39            16.2921093412       27.7726766691       10.5532974406  MEMB      49              0.0000000000
      6599        55  POPS      H9X            15.3307358032       27.2536088528       10.3516779999  MEMB      49              0.0000000000
      6600        55  POPS      H9Y            17.1038582961       27.0158427860       10.6041620079  MEMB      49              0.0000000000
      6601        55  POPS      C310           16.7079512600       28.7450980759        9.3844338159  MEMB      49              0.0000000000
      6602        55  POPS      H10X           17.8116969720       28.8705091411        9.3660388536  MEMB      49              0.0000000000
      6603        55  POPS      H10Y           16.1717680007       29.7173763095        9.4232097128  MEMB      49              0.0000000000
      6604        55  POPS      C311           16.4885891313       28.0881274034        8.0007787573  MEMB      49              0.0000000000
      6605        55  POPS      H11X           15.4275632100       27.7721616794        7.9074477228  MEMB      49              0.0000000000
      6606        55  POPS      H11Y           17.0556281909       27.1608214181        7.7707975561  MEMB      49              0.0000000000
      6607        55  POPS      C312           16.6756418226       29.1250827997        6.8201392767  MEMB      49              0.0000000000
      6608        55  POPS      H12X           17.7540264679       29.3912375974        6.7962827227  MEMB      49              0.0000000000
      6609        55  POPS      H12Y           16.0935443461       30.0367248493        7.0738953350  MEMB      49              0.0000000000
      6610        55  POPS      C313           16.2214128295       28.5621631712        5.5022186127  MEMB      49              0.0000000000
      6611        55  POPS      H13X           15.1112971547       28.5894419358        5.5371470164  MEMB      49              0.0000000000
      6612        55  POPS      H13Y           16.5855066754       27.5173187907        5.4019345697  MEMB      49              0.0000000000
      6613        55  POPS      C314           16.7291965969       29.1998966161        4.2370486255  MEMB      49              0.0000000000
      6614        55  POPS      H14X           17.6633077167       28.7363508596        3.8537958866  MEMB      49              0.0000000000
      6615        55  POPS      H14Y           17.0215496474       30.2632162321        4.3719642388  MEMB      49              0.0000000000
      6616        55  POPS      C315           15.6833798029       29.2792295607        2.9991517865  MEMB      49              0.0000000000
      6617        55  POPS      H15X           16.1577731875       29.9973791584        2.2966324911  MEMB      49              0.0000000000
      6618        55  POPS      H15Y           14.8235624298       29.8221284541        3.4466964727  MEMB      49              0.0000000000
      6619        55  POPS      C316           15.3287067731       27.9303444970        2.3000681310  MEMB      49              0.0000000000
      6620        55  POPS      H16X           14.7818820529       27.1819151437        2.9125683985  MEMB      49              0.0000000000
      6621        55  POPS      H16Y           16.3416082980       27.5559215604        2.0389951545  MEMB      49              0.0000000000
      6622        55  POPS      H16Z           14.6689705252       27.9928578373        1.4083498761  MEMB      49              0.0000000000
      6623        56  POPS      N               7.7020162403       33.1365105553       20.8479194131  MEMB      50              0.0000000000
      6624        56  POPS      HN1             7.3587979033       33.7337218329       21.6271113742  MEMB      50              0.0000000000
      6625        56  POPS      HN2             8.0954511783       32.2154095687       21.1278873960  MEMB      50              0.0000000000
      6626        56  POPS      HN3             8.3528157655       33.6770132578       20.2430089579  MEMB      50              0.0000000000
      6627        56  POPS      C12             6.4195506824       32.7821108149       20.0279655004  MEMB      50              0.0000000000
      6628        56  POPS      H12A            6.0010003154       33.7764723615       19.9783607735  MEMB      50              0.0000000000
      6629        56  POPS      C13             5.5143593520       31.8334177234       20.8946636713  MEMB      50              0.0000000000
      6630        56  POPS      O13A            5.9021631941       31.3347622483       22.0281901257  MEMB      50              0.0000000000
      6631        56  POPS      O13B            4.4306059870       31.5449791059       20.3890102405  MEMB      50              0.0000000000
      6632        56  POPS      C11             6.7655466381       32.1871928392       18.5938649662  MEMB      50              0.0000000000
      6633        56  POPS      H11A            5.7814178162       32.1126498017       18.0837131001  MEMB      50              0.0000000000
      6634        56  POPS      H11B            7.1139396668       31.1347388459       18.6665556054  MEMB      50              0.0000000000
      6635        56  POPS      P               8.9708617239       32.3799958600       17.2373253530  MEMB      50              0.0000000000
      6636        56  POPS      O13             8.6387090583       31.4617909471       16.1525135901  MEMB      50              0.0000000000
      6637        56  POPS      O14             9.7474241558       31.7712405584       18.2866563890  MEMB      50              0.0000000000
      6638        56  POPS      O12             7.6377031004       33.0349436831       17.8380854332  MEMB      50              0.0000000000
      6639        56  POPS      O11             9.7086587474       33.6684714623       16.7038053009  MEMB      50              0.0000000000
      6640        56  POPS      C1              9.8569422969       34.8302694717       17.4705897480  MEMB      50              0.0000000000
      6641        56  POPS      HA             10.7595150682       34.7089270013       18.1069540249  MEMB      50              0.0000000000
      6642        56  POPS      HB              8.9682314043       34.9222417518       18.1309344783  MEMB      50              0.0000000000
      6643        56  POPS      C2              9.9992357194       36.0742656351       16.6093991079  MEMB      50              0.0000000000
      6644        56  POPS      HS              9.6947665174       36.9317975763       17.2467828793  MEMB      50              0.0000000000
      6645        56  POPS      O21             9.0352955300       36.1089611251       15.5054111813  MEMB      50              0.0000000000
      6646        56  POPS      C21             7.7153134544       36.1092997772       15.8663244979  MEMB      50              0.0000000000
      6647        56  POPS      O22             7.2652228601       36.2344121771       16.9981549073  MEMB      50              0.0000000000
      6648        56  POPS      C22             6.8461567669       35.6728068211       14.7147858268  MEMB      50              0.0000000000
      6649        56  POPS      H2R             6.5310292773       36.5819949644       14.1594554704  MEMB      50              0.0000000000
      6650        56  POPS      H2S             6.0289920094       35.0506753785       15.1384785638  MEMB      50              0.0000000000
      6651        56  POPS      C3             11.4533161023       36.2028350245       16.0080093313  MEMB      50              0.0000000000
      6652        56  POPS      HX             12.1361775596       36.2476339169       16.8832316417  MEMB      50              0.0000000000
      6653        56  POPS      HY             11.5242680582       37.1659543912       15.4587478678  MEMB      50              0.0000000000
      6654        56  POPS      O31            11.7650612607       35.0335791435       15.2246997878  MEMB      50              0.0000000000
      6655        56  POPS      C31            11.6364739883       35.0404838656       13.9443674154  MEMB      50              0.0000000000
      6656        56  POPS      O32            11.1575170722       35.9781676774       13.3157728410  MEMB      50              0.0000000000
      6657        56  POPS      C32            12.1653360784       33.7138275305       13.3496625922  MEMB      50              0.0000000000
      6658        56  POPS      H2X            11.6490743537       32.8669898739       13.8503230597  MEMB      50              0.0000000000
      6659        56  POPS      H2Y            13.2577460649       33.6554623147       13.5434558280  MEMB      50              0.0000000000
      6660        56  POPS      C23             7.6486288347       34.8615083723       13.6558874271  MEMB      50              0.0000000000
      6661        56  POPS      H3R             8.1211340103       33.9947039821       14.1655045832  MEMB      50              0.0000000000
      6662        56  POPS      H3S             8.4064947987       35.5163553920       13.1751214217  MEMB      50              0.0000000000
      6663        56  POPS      C24             6.8006947590       34.2505276386       12.4965602669  MEMB      50              0.0000000000
      6664        56  POPS      H4R             6.2627181894       35.0622282255       11.9617288250  MEMB      50              0.0000000000
      6665        56  POPS      H4S             6.0488802913       33.5749098108       12.9576852962  MEMB      50              0.0000000000
      6666        56  POPS      C25             7.5980303174       33.5621820630       11.3892013497  MEMB      50              0.0000000000
      6667        56  POPS      H5R             8.0143732841       32.6150713482       11.7941218627  MEMB      50              0.0000000000
      6668        56  POPS      H5S             8.4547081541       34.1917014451       11.0665104605  MEMB      50              0.0000000000
      6669        56  POPS      C26             6.8852511832       33.1039758690       10.1275234491  MEMB      50              0.0000000000
      6670        56  POPS      H6R             7.6922955167       32.6779225811        9.4939000413  MEMB      50              0.0000000000
      6671        56  POPS      H6S             6.4877409684       34.0197460228        9.6400071653  MEMB      50              0.0000000000
      6672        56  POPS      C27             5.6737370603       32.2431144768       10.5592816260  MEMB      50              0.0000000000
      6673        56  POPS      H7R             4.9422067623       32.9455232831       11.0129407171  MEMB      50              0.0000000000
      6674        56  POPS      H7S             6.0265363821       31.4548605372       11.2582160656  MEMB      50              0.0000000000
      6675        56  POPS      C28             4.9142033457       31.7532455043        9.3329379099  MEMB      50              0.0000000000
      6676        56  POPS      H8R             4.5512103472       32.5683330556        8.6709787395  MEMB      50              0.0000000000
      6677        56  POPS      H8S             4.0258961153       31.1600272008        9.6384271383  MEMB      50              0.0000000000
      6678        56  POPS      C29             5.7687566473       30.7163690977        8.6515564656  MEMB      50              0.0000000000
      6679        56  POPS      H91             6.0868050768       29.9176276966        9.3377469186  MEMB      50              0.0000000000
      6680        56  POPS      C210            6.1404270822       30.6345059269        7.3646508815  MEMB      50              0.0000000000
      6681        56  POPS      H101            6.8132528584       29.8061755323        7.0978652574  MEMB      50              0.0000000000
      6682        56  POPS      C211            5.8120602660       31.4865093945        6.1866051648  MEMB      50              0.0000000000
      6683        56  POPS      H11R            4.9530862554       32.1601405791        6.3932584382  MEMB      50              0.0000000000
      6684        56  POPS      H11S            5.6299389490       30.7741305999        5.3537367991  MEMB      50              0.0000000000
      6685        56  POPS      C212            6.8926390315       32.4740411958        5.7261624831  MEMB      50              0.0000000000
      6686        56  POPS      H12R            7.7927134551       32.0210539554        5.2581995435  MEMB      50              0.0000000000
      6687        56  POPS      H12S            7.1370404429       33.0385426396        6.6513260737  MEMB      50              0.0000000000
      6688        56  POPS      C213            6.2534179592       33.4126650049        4.6865769437  MEMB      50              0.0000000000
      6689        56  POPS      H13R            6.7331399136       34.3820577433        4.4326770296  MEMB      50              0.0000000000
      6690        56  POPS      H13S            5.2321439367       33.7512679964        4.9634671735  MEMB      50              0.0000000000
      6691        56  POPS      C214            6.1600685003       32.6489664649        3.3547751096  MEMB      50              0.0000000000
      6692        56  POPS      H14R            5.3327802612       33.0322853736        2.7199663155  MEMB      50              0.0000000000
      6693        56  POPS      H14S            6.0155161005       31.5637076344        3.5435570218  MEMB      50              0.0000000000
      6694        56  POPS      C215            7.4472530834       32.8353701912        2.6325636175  MEMB      50              0.0000000000
      6695        56  POPS      H15R            8.3512665839       32.6523323981        3.2519003126  MEMB      50              0.0000000000
      6696        56  POPS      H15S            7.4553318937       33.8889928841        2.2802349271  MEMB      50              0.0000000000
      6697        56  POPS      C216            7.3536070406       31.8887716692        1.3981807677  MEMB      50              0.0000000000
      6698        56  POPS      H16R            6.9611955160       30.9143737421        1.7599587888  MEMB      50              0.0000000000
      6699        56  POPS      H16S            8.3380324335       31.6896587053        0.9232266745  MEMB      50              0.0000000000
      6700        56  POPS      C217            6.5239651167       32.5821995504        0.2362642172  MEMB      50              0.0000000000
      6701        56  POPS      H17R            6.7971345362       33.6244163624       -0.0348137155  MEMB      50              0.0000000000
      6702        56  POPS      H17S            5.4985768444       32.6727659456        0.6542346511  MEMB      50              0.0000000000
      6703        56  POPS      C218            6.3700851068       31.7523784834       -0.9469301869  MEMB      50              0.0000000000
      6704        56  POPS      H18R            7.2164581223       31.6502470213       -1.6593509498  MEMB      50              0.0000000000
      6705        56  POPS      H18S            5.4651349472       32.1952422029       -1.4151791471  MEMB      50              0.0000000000
      6706        56  POPS      H18T            6.0618558099       30.7247116144       -0.6584580256  MEMB      50              0.0000000000
      6707        56  POPS      C33            11.8464896517       33.6953793655       11.8464246972  MEMB      50              0.0000000000
      6708        56  POPS      H3X            12.4728108836       34.4684557593       11.3520611783  MEMB      50              0.0000000000
      6709        56  POPS      H3Y            10.7696632055       33.9220188002       11.6934532787  MEMB      50              0.0000000000
      6710        56  POPS      C34            12.0875719913       32.2650401971       11.2499670351  MEMB      50              0.0000000000
      6711        56  POPS      H4X            11.3146860938       31.5911090266       11.6775003429  MEMB      50              0.0000000000
      6712        56  POPS      H4Y            12.9680733182       31.6527109942       11.5399519529  MEMB      50              0.0000000000
      6713        56  POPS      C35            11.7693905507       32.2029524452        9.7464607443  MEMB      50              0.0000000000
      6714        56  POPS      H5X            12.2421232592       31.2543576712        9.4132750388  MEMB      50              0.0000000000
      6715        56  POPS      H5Y            12.3408080904       33.1087817414        9.4510346698  MEMB      50              0.0000000000
      6716        56  POPS      C36            10.3420480610       32.0972632880        9.2892389188  MEMB      50              0.0000000000
      6717        56  POPS      H6X             9.6732976867       32.7234819932        9.9176846103  MEMB      50              0.0000000000
      6718        56  POPS      H6Y            10.0547042497       31.0269829432        9.3683215758  MEMB      50              0.0000000000
      6719        56  POPS      C37            10.2368229236       32.2741861291        7.8027996476  MEMB      50              0.0000000000
      6720        56  POPS      H7X             9.3325895793       31.9795503256        7.2284541070  MEMB      50              0.0000000000
      6721        56  POPS      H7Y            11.0440308628       31.6479119996        7.3663162518  MEMB      50              0.0000000000
      6722        56  POPS      C38            10.2859467519       33.7836521662        7.5294431904  MEMB      50              0.0000000000
      6723        56  POPS      H8X            11.0006976586       34.4467840268        8.0620862952  MEMB      50              0.0000000000
      6724        56  POPS      H8Y             9.2891134852       34.2469888232        7.6905762492  MEMB      50              0.0000000000
      6725        56  POPS      C39            10.5191746119       34.0486785217        6.0240750575  MEMB      50              0.0000000000
      6726        56  POPS      H9X            10.6525483558       35.1432324669        5.8881176542  MEMB      50              0.0000000000
      6727        56  POPS      H9Y             9.6061014435       33.7854656891        5.4484556449  MEMB      50              0.0000000000
      6728        56  POPS      C310           11.7788811523       33.2688372085        5.4718743107  MEMB      50              0.0000000000
      6729        56  POPS      H10X           11.5225702235       32.1930403991        5.3656340796  MEMB      50              0.0000000000
      6730        56  POPS      H10Y           12.6101882903       33.1690551012        6.2021435459  MEMB      50              0.0000000000
      6731        56  POPS      C311           12.2745074997       33.8142715524        4.1356096372  MEMB      50              0.0000000000
      6732        56  POPS      H11X           13.1415201056       33.2300552451        3.7597093847  MEMB      50              0.0000000000
      6733        56  POPS      H11Y           12.6076515391       34.8740280570        4.1514903282  MEMB      50              0.0000000000
      6734        56  POPS      C312           11.3318031731       33.6565636127        2.9510132588  MEMB      50              0.0000000000
      6735        56  POPS      H12X           10.3308850864       34.0097160694        3.2792928732  MEMB      50              0.0000000000
      6736        56  POPS      H12Y           11.1444325535       32.6120670745        2.6220143173  MEMB      50              0.0000000000
      6737        56  POPS      C313           11.7438525473       34.5187370285        1.6695870417  MEMB      50              0.0000000000
      6738        56  POPS      H13X           12.7541823855       34.2433663322        1.2984747980  MEMB      50              0.0000000000
      6739        56  POPS      H13Y           11.7139005659       35.6129460245        1.8596674175  MEMB      50              0.0000000000
      6740        56  POPS      C314           10.7659928629       34.0706004868        0.5601332431  MEMB      50              0.0000000000
      6741        56  POPS      H14X           10.6977637823       34.9074220551       -0.1674628698  MEMB      50              0.0000000000
      6742        56  POPS      H14Y            9.7243251482       34.0323628982        0.9445633909  MEMB      50              0.0000000000
      6743        56  POPS      C315           11.1595611003       32.8075660283       -0.2190807899  MEMB      50              0.0000000000
      6744        56  POPS      H15X           10.7123306955       31.9285353416        0.2923983483  MEMB      50              0.0000000000
      6745        56  POPS      H15Y           12.2621774047       32.6880150080       -0.2843935460  MEMB      50              0.0000000000
      6746        56  POPS      C316           10.5604623202       32.6031216600       -1.6207313834  MEMB      50              0.0000000000
      6747        56  POPS      H16X            9.4873433040       32.3155409593       -1.6149286225  MEMB      50              0.0000000000
      6748        56  POPS      H16Y           11.1652753708       31.8476449901       -2.1664206995  MEMB      50              0.0000000000
      6749        56  POPS      H16Z           10.6433093215       33.4805470008       -2.2971796771  MEMB      50              0.0000000000
      6750        57  POPS      N              31.5422418903       -8.9156509126       20.7881839214  MEMB      51              0.0000000000
      6751        57  POPS      HN1            30.5784274866       -8.8947276031       21.1783427757  MEMB      51              0.0000000000
      6752        57  POPS      HN2            32.1740783125       -9.6790632228       21.1037539661  MEMB      51              0.0000000000
      6753        57  POPS      HN3            31.9833292180       -8.0145616774       21.0621916023  MEMB      51              0.0000000000
      6754        57  POPS      C12            31.4076791723       -8.8871254521       19.2508208939  MEMB      51              0.0000000000
      6755        57  POPS      H12A           32.3436097812       -8.5369490052       18.8411742575  MEMB      51              0.0000000000
      6756        57  POPS      C13            30.1831263985       -8.0141949038       18.8533690844  MEMB      51              0.0000000000
      6757        57  POPS      O13A           29.3136529176       -7.5891837574       19.7548390508  MEMB      51              0.0000000000
      6758        57  POPS      O13B           30.1182078240       -7.7769556334       17.6107388843  MEMB      51              0.0000000000
      6759        57  POPS      C11            31.3183753013      -10.3181361669       18.6899794429  MEMB      51              0.0000000000
      6760        57  POPS      H11A           31.2563943564      -10.2136470378       17.5856419741  MEMB      51              0.0000000000
      6761        57  POPS      H11B           30.4343506161      -10.8116450330       19.1474401302  MEMB      51              0.0000000000
      6762        57  POPS      P              32.5870105929      -12.5624047835       18.8658324285  MEMB      51              0.0000000000
      6763        57  POPS      O13            31.4942100660      -13.2225909679       19.6369966407  MEMB      51              0.0000000000
      6764        57  POPS      O14            33.9709561343      -12.8962506245       19.2764121292  MEMB      51              0.0000000000
      6765        57  POPS      O12            32.5207572840      -10.9770075567       18.9837965964  MEMB      51              0.0000000000
      6766        57  POPS      O11            32.3868317190      -12.6263076407       17.2890309289  MEMB      51              0.0000000000
      6767        57  POPS      C1             33.4933754045      -12.6370474174       16.3845362351  MEMB      51              0.0000000000
      6768        57  POPS      HA             33.3352178252      -13.5112795017       15.7174337597  MEMB      51              0.0000000000
      6769        57  POPS      HB             34.4711038576      -12.8919728456       16.8464681062  MEMB      51              0.0000000000
      6770        57  POPS      C2             33.6930363658      -11.2799507396       15.7056560781  MEMB      51              0.0000000000
      6771        57  POPS      HS             34.1098808563      -10.6576518147       16.5262082132  MEMB      51              0.0000000000
      6772        57  POPS      O21            32.4047249580      -10.8140198996       15.2467751338  MEMB      51              0.0000000000
      6773        57  POPS      C21            32.3106781364       -9.4548250371       15.1534138027  MEMB      51              0.0000000000
      6774        57  POPS      O22            33.1863628490       -8.6506042530       15.4873161662  MEMB      51              0.0000000000
      6775        57  POPS      C22            30.9851537946       -9.0674693785       14.6200503716  MEMB      51              0.0000000000
      6776        57  POPS      H2R            30.2985627936       -8.6941457873       15.4096977869  MEMB      51              0.0000000000
      6777        57  POPS      H2S            30.4032005806       -9.7873615766       14.0057158984  MEMB      51              0.0000000000
      6778        57  POPS      C3             34.7024047273      -11.3862103157       14.5183446471  MEMB      51              0.0000000000
      6779        57  POPS      HX             35.6075749278      -11.9983405864       14.7190549138  MEMB      51              0.0000000000
      6780        57  POPS      HY             34.9972053130      -10.3680399295       14.1855639028  MEMB      51              0.0000000000
      6781        57  POPS      O31            33.9966432628      -11.9751510391       13.4031860584  MEMB      51              0.0000000000
      6782        57  POPS      C31            34.7333303219      -12.4301277137       12.3499274939  MEMB      51              0.0000000000
      6783        57  POPS      O32            35.9339989137      -12.3786084569       12.1963186610  MEMB      51              0.0000000000
      6784        57  POPS      C32            33.8214694945      -13.0752947153       11.3119222141  MEMB      51              0.0000000000
      6785        57  POPS      H2X            33.1063958329      -12.3226884737       10.9162279990  MEMB      51              0.0000000000
      6786        57  POPS      H2Y            33.2135890572      -13.8925487380       11.7556547735  MEMB      51              0.0000000000
      6787        57  POPS      C23            31.3273419736       -7.7376939035       13.8620778272  MEMB      51              0.0000000000
      6788        57  POPS      H3R            32.0747965651       -7.9336453584       13.0638076307  MEMB      51              0.0000000000
      6789        57  POPS      H3S            31.8136154356       -6.9172623634       14.4319476477  MEMB      51              0.0000000000
      6790        57  POPS      C24            30.1310713794       -6.9262816083       13.2345938614  MEMB      51              0.0000000000
      6791        57  POPS      H4R            30.6307559104       -5.9755757913       12.9503499802  MEMB      51              0.0000000000
      6792        57  POPS      H4S            29.3888849421       -6.8285451855       14.0555252908  MEMB      51              0.0000000000
      6793        57  POPS      C25            29.4275010040       -7.5299280840       11.9913986729  MEMB      51              0.0000000000
      6794        57  POPS      H5R            28.4908869334       -6.9779430505       11.7625147890  MEMB      51              0.0000000000
      6795        57  POPS      H5S            29.0497407997       -8.5101524854       12.3530324639  MEMB      51              0.0000000000
      6796        57  POPS      C26            30.2088169277       -7.8953028383       10.7241543014  MEMB      51              0.0000000000
      6797        57  POPS      H6R            29.7176818056       -8.7991355094       10.3044001800  MEMB      51              0.0000000000
      6798        57  POPS      H6S            31.2580671858       -8.2018868068       10.9226513945  MEMB      51              0.0000000000
      6799        57  POPS      C27            30.2131501714       -6.6909304514        9.7035356326  MEMB      51              0.0000000000
      6800        57  POPS      H7R            30.6481195609       -5.7572011253       10.1197955550  MEMB      51              0.0000000000
      6801        57  POPS      H7S            29.1507823700       -6.4098496197        9.5401668495  MEMB      51              0.0000000000
      6802        57  POPS      C28            30.7966767071       -7.0835095086        8.3150354636  MEMB      51              0.0000000000
      6803        57  POPS      H8R            31.2457308988       -6.1739676896        7.8618193595  MEMB      51              0.0000000000
      6804        57  POPS      H8S            29.9467760915       -7.3764085594        7.6621953833  MEMB      51              0.0000000000
      6805        57  POPS      C29            31.8333939904       -8.1727740328        8.4444016994  MEMB      51              0.0000000000
      6806        57  POPS      H91            32.6975863175       -7.9173914262        9.0752360239  MEMB      51              0.0000000000
      6807        57  POPS      C210           31.7452402805       -9.4134603932        7.9437626467  MEMB      51              0.0000000000
      6808        57  POPS      H101           32.6196858573      -10.0747998553        8.0330653548  MEMB      51              0.0000000000
      6809        57  POPS      C211           30.5477391086       -9.9253591151        7.1602249229  MEMB      51              0.0000000000
      6810        57  POPS      H11R           29.5660409141       -9.5063690992        7.4685054937  MEMB      51              0.0000000000
      6811        57  POPS      H11S           30.4710833330      -11.0222009309        7.3195443942  MEMB      51              0.0000000000
      6812        57  POPS      C212           30.6003305284       -9.8586056438        5.5749698142  MEMB      51              0.0000000000
      6813        57  POPS      H12R           29.8035783059      -10.5368149678        5.2014209814  MEMB      51              0.0000000000
      6814        57  POPS      H12S           31.5862205656      -10.2651245291        5.2633871087  MEMB      51              0.0000000000
      6815        57  POPS      C213           30.5197627263       -8.4013303866        5.0419237625  MEMB      51              0.0000000000
      6816        57  POPS      H13R           31.3518573197       -7.7702496029        5.4209707956  MEMB      51              0.0000000000
      6817        57  POPS      H13S           29.5818371091       -8.0510582856        5.5235105306  MEMB      51              0.0000000000
      6818        57  POPS      C214           30.3674440223       -8.2688889645        3.5079036946  MEMB      51              0.0000000000
      6819        57  POPS      H14R           29.5819923871       -7.5451103664        3.2020748422  MEMB      51              0.0000000000
      6820        57  POPS      H14S           29.9847277457       -9.2531333611        3.1627772738  MEMB      51              0.0000000000
      6821        57  POPS      C215           31.7155106252       -8.1587491575        2.8042410795  MEMB      51              0.0000000000
      6822        57  POPS      H15R           32.2964751126       -9.0518907580        3.1190412162  MEMB      51              0.0000000000
      6823        57  POPS      H15S           32.1708648447       -7.1758532039        3.0509985165  MEMB      51              0.0000000000
      6824        57  POPS      C216           31.4014056758       -8.0173527103        1.3186863896  MEMB      51              0.0000000000
      6825        57  POPS      H16R           30.7150867189       -7.1502555035        1.2117779844  MEMB      51              0.0000000000
      6826        57  POPS      H16S           30.8114395611       -8.9115582839        1.0243092257  MEMB      51              0.0000000000
      6827        57  POPS      C217           32.6095487942       -7.8014573407        0.4051844062  MEMB      51              0.0000000000
      6828        57  POPS      H17R           33.0704818638       -6.7927961512        0.4720001572  MEMB      51              0.0000000000
      6829        57  POPS      H17S           32.1918545627       -7.8678881270       -0.6221620819  MEMB      51              0.0000000000
      6830        57  POPS      C218           33.8244524757       -8.7535278820        0.3592100473  MEMB      51              0.0000000000
      6831        57  POPS      H18R           33.5223812801       -9.7282173079       -0.0801685907  MEMB      51              0.0000000000
      6832        57  POPS      H18S           34.2140625269       -8.8913160651        1.3904899778  MEMB      51              0.0000000000
      6833        57  POPS      H18T           34.6781321476       -8.4099899887       -0.2633108531  MEMB      51              0.0000000000
      6834        57  POPS      C33            34.6832116853      -13.6082665114       10.1405220304  MEMB      51              0.0000000000
      6835        57  POPS      H3X            35.1172946254      -14.5118505114       10.6195092275  MEMB      51              0.0000000000
      6836        57  POPS      H3Y            35.5257657702      -13.0189010543        9.7197230300  MEMB      51              0.0000000000
      6837        57  POPS      C34            33.7715324789      -13.9773755663        8.9953912826  MEMB      51              0.0000000000
      6838        57  POPS      H4X            32.8161233247      -14.4876971819        9.2425469853  MEMB      51              0.0000000000
      6839        57  POPS      H4Y            34.3464769125      -14.6734733868        8.3479284401  MEMB      51              0.0000000000
      6840        57  POPS      C35            33.3618444536      -12.7771149244        8.1006307868  MEMB      51              0.0000000000
      6841        57  POPS      H5X            34.2928437139      -12.2801628035        7.7533557201  MEMB      51              0.0000000000
      6842        57  POPS      H5Y            32.7670629645      -12.0742543113        8.7223567798  MEMB      51              0.0000000000
      6843        57  POPS      C36            32.5824409559      -13.0829222916        6.7625437223  MEMB      51              0.0000000000
      6844        57  POPS      H6X            32.3411823814      -12.1135274816        6.2763449264  MEMB      51              0.0000000000
      6845        57  POPS      H6Y            31.6600517872      -13.5958937047        7.1095006519  MEMB      51              0.0000000000
      6846        57  POPS      C37            33.2205359868      -14.1572221541        5.8305921609  MEMB      51              0.0000000000
      6847        57  POPS      H7X            33.2050329880      -15.1595797083        6.3095077772  MEMB      51              0.0000000000
      6848        57  POPS      H7Y            34.2899558286      -13.9203269205        5.6447349624  MEMB      51              0.0000000000
      6849        57  POPS      C38            32.3630360307      -14.2583735386        4.5600008682  MEMB      51              0.0000000000
      6850        57  POPS      H8X            31.2666202139      -14.1915198163        4.7265052841  MEMB      51              0.0000000000
      6851        57  POPS      H8Y            32.5678635610      -15.2165416887        4.0362832639  MEMB      51              0.0000000000
      6852        57  POPS      C39            32.7546547065      -13.1159176700        3.4969543963  MEMB      51              0.0000000000
      6853        57  POPS      H9X            33.8384954063      -13.1733616800        3.2596552691  MEMB      51              0.0000000000
      6854        57  POPS      H9Y            32.5476130704      -12.1235105674        3.9514682545  MEMB      51              0.0000000000
      6855        57  POPS      C310           31.9303350805      -13.2329202062        2.2564686993  MEMB      51              0.0000000000
      6856        57  POPS      H10X           32.3210918077      -12.4471940929        1.5750971820  MEMB      51              0.0000000000
      6857        57  POPS      H10Y           30.8524782923      -13.0084551439        2.4053345555  MEMB      51              0.0000000000
      6858        57  POPS      C311           32.0537969778      -14.6211344051        1.5881913429  MEMB      51              0.0000000000
      6859        57  POPS      H11X           31.5745724261      -14.6776406080        0.5874549061  MEMB      51              0.0000000000
      6860        57  POPS      H11Y           31.4949909403      -15.2428456707        2.3199918025  MEMB      51              0.0000000000
      6861        57  POPS      C312           33.5046703155      -15.1357256084        1.3780851026  MEMB      51              0.0000000000
      6862        57  POPS      H12X           33.6675843790      -16.2226056524        1.5407863615  MEMB      51              0.0000000000
      6863        57  POPS      H12Y           34.1923340889      -14.7166432736        2.1434680128  MEMB      51              0.0000000000
      6864        57  POPS      C313           33.9433766332      -14.8702918990       -0.0653368839  MEMB      51              0.0000000000
      6865        57  POPS      H13X           35.0480450404      -14.9593401356       -0.1434341548  MEMB      51              0.0000000000
      6866        57  POPS      H13Y           33.8038105107      -13.7992490340       -0.3255464526  MEMB      51              0.0000000000
      6867        57  POPS      C314           33.3900916182      -15.9576238679       -0.9809305858  MEMB      51              0.0000000000
      6868        57  POPS      H14X           32.2848090679      -15.9393919427       -1.0920114559  MEMB      51              0.0000000000
      6869        57  POPS      H14Y           33.6692322920      -16.9093741514       -0.4803586259  MEMB      51              0.0000000000
      6870        57  POPS      C315           33.9811033435      -15.8194211511       -2.3642803991  MEMB      51              0.0000000000
      6871        57  POPS      H15X           33.8944723260      -16.7772732540       -2.9204602717  MEMB      51              0.0000000000
      6872        57  POPS      H15Y           35.0587428411      -15.5608700978       -2.2857607011  MEMB      51              0.0000000000
      6873        57  POPS      C316           33.1975848012      -14.8166348879       -3.2311617505  MEMB      51              0.0000000000
      6874        57  POPS      H16X           32.1788505921      -15.2463220906       -3.3401112201  MEMB      51              0.0000000000
      6875        57  POPS      H16Y           33.6287199882      -14.7528999719       -4.2531116108  MEMB      51              0.0000000000
      6876        57  POPS      H16Z           33.1950397821      -13.8077548650       -2.7658938466  MEMB      51              0.0000000000
      6877        58  POPC      N             -20.8722960799       27.7560031291       20.1851255868  MEMB      52              0.0000000000
      6878        58  POPC      C12           -20.4288457517       27.6888723051       18.7306137223  MEMB      52              0.0000000000
      6879        58  POPC      H12A          -20.0368674632       28.6625821742       18.4763652396  MEMB      52              0.0000000000
      6880        58  POPC      H12B          -21.3289439568       27.5134985685       18.1601163392  MEMB      52              0.0000000000
      6881        58  POPC      C13           -19.8126977701       28.4762673089       21.0480128404  MEMB      52              0.0000000000
      6882        58  POPC      H13A          -20.2507593038       28.6349147572       22.0223502108  MEMB      52              0.0000000000
      6883        58  POPC      H13B          -19.0137670732       27.7806071546       21.2581717042  MEMB      52              0.0000000000
      6884        58  POPC      H13C          -19.5277624909       29.3801025293       20.5300418873  MEMB      52              0.0000000000
      6885        58  POPC      C14           -22.1301736535       28.5965683711       20.0841509287  MEMB      52              0.0000000000
      6886        58  POPC      H14A          -22.4514618855       28.7636423289       21.1016283239  MEMB      52              0.0000000000
      6887        58  POPC      H14B          -22.0287576564       29.5847011341       19.6602304854  MEMB      52              0.0000000000
      6888        58  POPC      H14C          -22.9296913413       28.1646285949       19.5005417596  MEMB      52              0.0000000000
      6889        58  POPC      C15           -21.1538798108       26.4328558883       20.7648040019  MEMB      52              0.0000000000
      6890        58  POPC      H15A          -22.0250568601       25.9689590264       20.3263405611  MEMB      52              0.0000000000
      6891        58  POPC      H15B          -21.3778983427       26.5967084214       21.8085318700  MEMB      52              0.0000000000
      6892        58  POPC      H15C          -20.2383186950       25.8715623664       20.6503598609  MEMB      52              0.0000000000
      6893        58  POPC      C11           -19.2638045719       26.7690770307       18.3040244632  MEMB      52              0.0000000000
      6894        58  POPC      H11A          -18.4003391606       27.2597012258       18.8020570166  MEMB      52              0.0000000000
      6895        58  POPC      H11B          -19.1733631366       26.8097129425       17.1974576228  MEMB      52              0.0000000000
      6896        58  POPC      P             -20.1881924235       24.3787675923       17.9791860279  MEMB      52              0.0000000000
      6897        58  POPC      O13           -20.7319368648       23.3810325401       18.9060276676  MEMB      52              0.0000000000
      6898        58  POPC      O14           -19.4396046988       23.9479661636       16.7850959211  MEMB      52              0.0000000000
      6899        58  POPC      O12           -19.3174649803       25.4209624129       18.7568313425  MEMB      52              0.0000000000
      6900        58  POPC      O11           -21.3473905367       25.2708487330       17.4561275316  MEMB      52              0.0000000000
      6901        58  POPC      C1            -22.6622834961       24.9910373799       17.8047026039  MEMB      52              0.0000000000
      6902        58  POPC      HA            -23.1353395671       25.5301949570       18.6531411402  MEMB      52              0.0000000000
      6903        58  POPC      HB            -22.8053202599       23.9302773032       18.1024427005  MEMB      52              0.0000000000
      6904        58  POPC      C2            -23.5394085227       25.3363638480       16.6313001097  MEMB      52              0.0000000000
      6905        58  POPC      HS            -24.5482397031       24.9254999012       16.8498667802  MEMB      52              0.0000000000
      6906        58  POPC      O21           -23.0196478160       24.6288005259       15.4276449719  MEMB      52              0.0000000000
      6907        58  POPC      C21           -23.3697557266       23.3424308660       15.4339322861  MEMB      52              0.0000000000
      6908        58  POPC      O22           -24.2984322930       22.8132877970       16.0118291524  MEMB      52              0.0000000000
      6909        58  POPC      C22           -22.5234831446       22.5881671675       14.3710176685  MEMB      52              0.0000000000
      6910        58  POPC      H2R           -22.3672374038       21.5521046150       14.7404527542  MEMB      52              0.0000000000
      6911        58  POPC      H2S           -21.5708108996       23.1407750671       14.2248628613  MEMB      52              0.0000000000
      6912        58  POPC      C3            -23.6978762873       26.8532180395       16.3450040808  MEMB      52              0.0000000000
      6913        58  POPC      HX            -24.0933847878       27.2717116546       17.2951396466  MEMB      52              0.0000000000
      6914        58  POPC      HY            -24.3680914789       26.9286976025       15.4621477388  MEMB      52              0.0000000000
      6915        58  POPC      O31           -22.4274218521       27.3239550588       16.0160169158  MEMB      52              0.0000000000
      6916        58  POPC      C31           -22.3366378414       28.5237629346       15.3992245581  MEMB      52              0.0000000000
      6917        58  POPC      O32           -23.2603539476       29.2978140674       15.2115070959  MEMB      52              0.0000000000
      6918        58  POPC      C32           -20.9503237191       28.5712611886       14.8305705988  MEMB      52              0.0000000000
      6919        58  POPC      H2X           -20.3168404905       27.7264404178       15.1759657833  MEMB      52              0.0000000000
      6920        58  POPC      H2Y           -20.4310265432       29.5438028081       14.9677353176  MEMB      52              0.0000000000
      6921        58  POPC      C23           -23.2810482763       22.3493859284       13.0105621242  MEMB      52              0.0000000000
      6922        58  POPC      H3R           -23.4465171512       23.3533064162       12.5643734484  MEMB      52              0.0000000000
      6923        58  POPC      H3S           -24.2693837453       21.8860208798       13.2174600647  MEMB      52              0.0000000000
      6924        58  POPC      C24           -22.4110720655       21.6103092191       11.9755194018  MEMB      52              0.0000000000
      6925        58  POPC      H4R           -23.1646496256       21.4735223662       11.1707021232  MEMB      52              0.0000000000
      6926        58  POPC      H4S           -22.1147131297       20.5929576811       12.3094169191  MEMB      52              0.0000000000
      6927        58  POPC      C25           -21.1435029444       22.2312326952       11.4396913292  MEMB      52              0.0000000000
      6928        58  POPC      H5R           -20.5534714016       22.5310745881       12.3320358792  MEMB      52              0.0000000000
      6929        58  POPC      H5S           -21.4406737444       23.1763088998       10.9368581253  MEMB      52              0.0000000000
      6930        58  POPC      C26           -20.3002110887       21.3411427390       10.5085720504  MEMB      52              0.0000000000
      6931        58  POPC      H6R           -20.8612742297       20.8347731290        9.6942504659  MEMB      52              0.0000000000
      6932        58  POPC      H6S           -19.7677100094       20.5762502260       11.1133061375  MEMB      52              0.0000000000
      6933        58  POPC      C27           -19.4440141574       22.2598026889        9.5711245493  MEMB      52              0.0000000000
      6934        58  POPC      H7R           -18.4741764537       21.7481610786        9.3923547376  MEMB      52              0.0000000000
      6935        58  POPC      H7S           -19.2109184382       23.1722300525       10.1605852166  MEMB      52              0.0000000000
      6936        58  POPC      C28           -20.1730082553       22.7170484413        8.2950000022  MEMB      52              0.0000000000
      6937        58  POPC      H8R           -21.1506107488       23.2170459569        8.4641655976  MEMB      52              0.0000000000
      6938        58  POPC      H8S           -20.3799853650       21.8771227925        7.5978589135  MEMB      52              0.0000000000
      6939        58  POPC      C29           -19.3638194311       23.6559953426        7.5062850851  MEMB      52              0.0000000000
      6940        58  POPC      H91           -19.2553680605       24.6043088915        8.0530390108  MEMB      52              0.0000000000
      6941        58  POPC      C210          -18.8050256585       23.4745308414        6.2626457556  MEMB      52              0.0000000000
      6942        58  POPC      H101          -18.3689414345       24.3472177681        5.7544643668  MEMB      52              0.0000000000
      6943        58  POPC      C211          -18.9182571848       22.1556719414        5.4624926081  MEMB      52              0.0000000000
      6944        58  POPC      H11R          -19.2294008438       21.3250521391        6.1315076159  MEMB      52              0.0000000000
      6945        58  POPC      H11S          -17.9901495318       21.9438793110        4.8897091512  MEMB      52              0.0000000000
      6946        58  POPC      C212          -20.0617699192       22.2550990049        4.4295743623  MEMB      52              0.0000000000
      6947        58  POPC      H12R          -20.0113691621       21.4372984149        3.6792523021  MEMB      52              0.0000000000
      6948        58  POPC      H12S          -20.1433938927       23.2226778559        3.8897135963  MEMB      52              0.0000000000
      6949        58  POPC      C213          -21.5161849546       22.0020512085        5.0760754729  MEMB      52              0.0000000000
      6950        58  POPC      H13R          -21.6987052114       22.7051018589        5.9167459630  MEMB      52              0.0000000000
      6951        58  POPC      H13S          -21.5158195490       21.0667774348        5.6757281162  MEMB      52              0.0000000000
      6952        58  POPC      C214          -22.5610539490       21.9950204735        4.0164769754  MEMB      52              0.0000000000
      6953        58  POPC      H14R          -23.5338161185       22.0144480573        4.5528327346  MEMB      52              0.0000000000
      6954        58  POPC      H14S          -22.5282116423       21.1348643040        3.3140710985  MEMB      52              0.0000000000
      6955        58  POPC      C215          -22.6197810668       23.2513289162        3.1275794346  MEMB      52              0.0000000000
      6956        58  POPC      H15R          -21.7719905092       23.2847579092        2.4103248540  MEMB      52              0.0000000000
      6957        58  POPC      H15S          -22.5057637930       24.1699892236        3.7418947271  MEMB      52              0.0000000000
      6958        58  POPC      C216          -23.9469448598       23.4526265340        2.2301984733  MEMB      52              0.0000000000
      6959        58  POPC      H16R          -24.0856052354       22.6778770348        1.4460692948  MEMB      52              0.0000000000
      6960        58  POPC      H16S          -23.6648438095       24.2597541229        1.5207729483  MEMB      52              0.0000000000
      6961        58  POPC      C217          -25.1951721967       23.6167551058        3.0579183242  MEMB      52              0.0000000000
      6962        58  POPC      H17R          -24.9198824026       24.0931717092        4.0230939434  MEMB      52              0.0000000000
      6963        58  POPC      H17S          -25.6483340399       22.6278176560        3.2836788054  MEMB      52              0.0000000000
      6964        58  POPC      C218          -26.2929738658       24.4738955941        2.5058061689  MEMB      52              0.0000000000
      6965        58  POPC      H18R          -25.9460125627       25.4272535181        2.0529843082  MEMB      52              0.0000000000
      6966        58  POPC      H18S          -26.9741569676       24.7133766814        3.3501761636  MEMB      52              0.0000000000
      6967        58  POPC      H18T          -26.7987860418       23.9838043514        1.6465714150  MEMB      52              0.0000000000
      6968        58  POPC      C33           -21.1182949088       28.3078912036       13.2606712575  MEMB      52              0.0000000000
      6969        58  POPC      H3X           -21.8590456928       29.0158705572       12.8312827204  MEMB      52              0.0000000000
      6970        58  POPC      H3Y           -21.6395184221       27.3267642149       13.2667242248  MEMB      52              0.0000000000
      6971        58  POPC      C34           -19.7558105353       28.2791556219       12.5006300036  MEMB      52              0.0000000000
      6972        58  POPC      H4X           -18.8877473992       28.1554389722       13.1828921232  MEMB      52              0.0000000000
      6973        58  POPC      H4Y           -19.5084759546       29.2895138953       12.1103439310  MEMB      52              0.0000000000
      6974        58  POPC      C35           -19.5252147838       27.1156872575       11.5417987922  MEMB      52              0.0000000000
      6975        58  POPC      H5X           -19.0991600100       26.2499252610       12.0924842349  MEMB      52              0.0000000000
      6976        58  POPC      H5Y           -18.7647138120       27.3236829115       10.7590491723  MEMB      52              0.0000000000
      6977        58  POPC      C36           -20.7972355781       26.6266973938       10.8075200556  MEMB      52              0.0000000000
      6978        58  POPC      H6X           -21.4936272151       26.1852727035       11.5521703447  MEMB      52              0.0000000000
      6979        58  POPC      H6Y           -20.3643172399       25.8344661773       10.1600074651  MEMB      52              0.0000000000
      6980        58  POPC      C37           -21.3831646679       27.6402280782       10.0532824020  MEMB      52              0.0000000000
      6981        58  POPC      H7X           -20.5302135930       28.0112675880        9.4457254549  MEMB      52              0.0000000000
      6982        58  POPC      H7Y           -21.6431625349       28.5606241058       10.6186081933  MEMB      52              0.0000000000
      6983        58  POPC      C38           -22.4823586263       27.2547292308        9.0431661648  MEMB      52              0.0000000000
      6984        58  POPC      H8X           -23.4470534903       27.6817603383        9.3914895539  MEMB      52              0.0000000000
      6985        58  POPC      H8Y           -22.5719357309       26.1500433646        9.1204057002  MEMB      52              0.0000000000
      6986        58  POPC      C39           -22.1999185878       27.6231206684        7.5741947772  MEMB      52              0.0000000000
      6987        58  POPC      H9X           -21.1178337790       27.3886691876        7.4822931056  MEMB      52              0.0000000000
      6988        58  POPC      H9Y           -22.4427279975       28.6960363285        7.4185770490  MEMB      52              0.0000000000
      6989        58  POPC      C310          -23.2191574061       26.8235825732        6.7120395172  MEMB      52              0.0000000000
      6990        58  POPC      H10X          -24.1619289212       27.4059280404        6.6321861039  MEMB      52              0.0000000000
      6991        58  POPC      H10Y          -23.3849959698       25.8380329913        7.1973340359  MEMB      52              0.0000000000
      6992        58  POPC      C311          -22.6750906143       26.5121416238        5.3109795411  MEMB      52              0.0000000000
      6993        58  POPC      H11X          -23.4995417233       25.9532897528        4.8187545966  MEMB      52              0.0000000000
      6994        58  POPC      H11Y          -21.7692818180       25.8718495655        5.3730874711  MEMB      52              0.0000000000
      6995        58  POPC      C312          -22.1752976316       27.7202006260        4.4019073308  MEMB      52              0.0000000000
      6996        58  POPC      H12X          -21.6450224197       28.4912879129        5.0007013367  MEMB      52              0.0000000000
      6997        58  POPC      H12Y          -23.1171106085       28.1246066907        3.9732295259  MEMB      52              0.0000000000
      6998        58  POPC      C313          -21.4586380027       27.3502509551        3.1199621374  MEMB      52              0.0000000000
      6999        58  POPC      H13X          -21.1864360930       28.2718993613        2.5624756144  MEMB      52              0.0000000000
      7000        58  POPC      H13Y          -22.0684800703       26.7147901414        2.4427587131  MEMB      52              0.0000000000
      7001        58  POPC      C314          -20.0793487077       26.7282244618        3.4301132202  MEMB      52              0.0000000000
      7002        58  POPC      H14X          -20.2549993905       25.6422433926        3.5853960264  MEMB      52              0.0000000000
      7003        58  POPC      H14Y          -19.6252441818       27.1903102338        4.3326571363  MEMB      52              0.0000000000
      7004        58  POPC      C315          -19.1760245733       26.8593764250        2.1576675928  MEMB      52              0.0000000000
      7005        58  POPC      H15X          -18.8970277125       27.9248959233        2.0122377004  MEMB      52              0.0000000000
      7006        58  POPC      H15Y          -19.7790627911       26.4986658312        1.2971120506  MEMB      52              0.0000000000
      7007        58  POPC      C316          -18.0323093389       25.9440232375        2.3031598401  MEMB      52              0.0000000000
      7008        58  POPC      H16X          -17.3451150783       25.9562934634        1.4302722357  MEMB      52              0.0000000000
      7009        58  POPC      H16Y          -18.4221295568       24.9176157714        2.4730090664  MEMB      52              0.0000000000
      7010        58  POPC      H16Z          -17.4788804124       26.1658344753        3.2406238043  MEMB      52              0.0000000000
      7011        59  POPC      N             -25.5444219314      -20.2024741145       19.8152065943  MEMB      53              0.0000000000
      7012        59  POPC      C12           -25.4719463586      -20.8455290518       18.4402167022  MEMB      53              0.0000000000
      7013        59  POPC      H12A          -24.4614931316      -20.8207943181       18.0597269850  MEMB      53              0.0000000000
      7014        59  POPC      H12B          -26.0790380363      -20.2605979822       17.7651646850  MEMB      53              0.0000000000
      7015        59  POPC      C13           -24.6503756223      -20.9273399595       20.7963246560  MEMB      53              0.0000000000
      7016        59  POPC      H13A          -23.6473840192      -21.0151167648       20.4055521301  MEMB      53              0.0000000000
      7017        59  POPC      H13B          -24.6598085704      -20.5272661327       21.7994457830  MEMB      53              0.0000000000
      7018        59  POPC      H13C          -25.1151229576      -21.9018993760       20.8216973003  MEMB      53              0.0000000000
      7019        59  POPC      C14           -24.9326022339      -18.8695787405       19.5928284512  MEMB      53              0.0000000000
      7020        59  POPC      H14A          -25.0917703009      -18.2513723032       20.4639693467  MEMB      53              0.0000000000
      7021        59  POPC      H14B          -23.8767116369      -19.0447460234       19.4485670737  MEMB      53              0.0000000000
      7022        59  POPC      H14C          -25.3370491885      -18.4356905029       18.6902965957  MEMB      53              0.0000000000
      7023        59  POPC      C15           -26.9916310344      -20.0063399832       20.2688375432  MEMB      53              0.0000000000
      7024        59  POPC      H15A          -27.4735316985      -19.5343940285       19.4253691017  MEMB      53              0.0000000000
      7025        59  POPC      H15B          -27.1265172907      -19.3285833287       21.0988084590  MEMB      53              0.0000000000
      7026        59  POPC      H15C          -27.5072974103      -20.9484830560       20.3822150203  MEMB      53              0.0000000000
      7027        59  POPC      C11           -25.9982883832      -22.3012682073       18.2481290856  MEMB      53              0.0000000000
      7028        59  POPC      H11A          -26.1073657806      -22.5212955936       17.1646112169  MEMB      53              0.0000000000
      7029        59  POPC      H11B          -27.0115305780      -22.4001056725       18.6929802253  MEMB      53              0.0000000000
      7030        59  POPC      P             -23.7711506856      -23.6887737686       18.3688464299  MEMB      53              0.0000000000
      7031        59  POPC      O13           -23.9735699439      -24.7859651418       17.4661451758  MEMB      53              0.0000000000
      7032        59  POPC      O14           -22.8352324319      -23.8285457515       19.5209678426  MEMB      53              0.0000000000
      7033        59  POPC      O12           -25.2347026826      -23.3006238960       18.8744255729  MEMB      53              0.0000000000
      7034        59  POPC      O11           -23.2250243935      -22.4442716495       17.6080719460  MEMB      53              0.0000000000
      7035        59  POPC      C1            -21.9562538516      -22.6090590492       16.9559901376  MEMB      53              0.0000000000
      7036        59  POPC      HA            -22.0180382352      -23.3339534674       16.1163282618  MEMB      53              0.0000000000
      7037        59  POPC      HB            -21.1999196840      -23.1047727220       17.6013952013  MEMB      53              0.0000000000
      7038        59  POPC      C2            -21.4400432893      -21.2931613689       16.3102347017  MEMB      53              0.0000000000
      7039        59  POPC      HS            -21.1710770834      -20.7301760046       17.2294874217  MEMB      53              0.0000000000
      7040        59  POPC      O21           -22.5505732548      -20.6216565871       15.6848750126  MEMB      53              0.0000000000
      7041        59  POPC      C21           -22.3777410195      -19.3718978095       15.3914274684  MEMB      53              0.0000000000
      7042        59  POPC      O22           -21.5099635962      -18.6381902151       15.9320489808  MEMB      53              0.0000000000
      7043        59  POPC      C22           -23.4798562491      -18.8643863223       14.5613244885  MEMB      53              0.0000000000
      7044        59  POPC      H2R           -23.8465400349      -17.9309639085       15.0394319683  MEMB      53              0.0000000000
      7045        59  POPC      H2S           -24.2943176229      -19.6191207740       14.5980586556  MEMB      53              0.0000000000
      7046        59  POPC      C3            -20.2780764087      -21.2916763573       15.2717609295  MEMB      53              0.0000000000
      7047        59  POPC      HX            -19.4380241915      -21.7839547835       15.8068267458  MEMB      53              0.0000000000
      7048        59  POPC      HY            -19.9944311063      -20.2934353355       14.8750482003  MEMB      53              0.0000000000
      7049        59  POPC      O31           -20.6746260952      -22.1152482707       14.1976424921  MEMB      53              0.0000000000
      7050        59  POPC      C31           -20.1208914963      -22.0189934601       12.9889001220  MEMB      53              0.0000000000
      7051        59  POPC      O32           -19.2634017879      -21.1649759351       12.6602902594  MEMB      53              0.0000000000
      7052        59  POPC      C32           -20.5151742678      -23.2049735625       12.1607677323  MEMB      53              0.0000000000
      7053        59  POPC      H2X           -21.5675431324      -23.4557168749       12.4136882088  MEMB      53              0.0000000000
      7054        59  POPC      H2Y           -19.8541337878      -24.0692549367       12.3851879530  MEMB      53              0.0000000000
      7055        59  POPC      C23           -23.1200612295      -18.5316530610       13.1136691618  MEMB      53              0.0000000000
      7056        59  POPC      H3R           -22.1542707494      -18.0091097371       12.9447974731  MEMB      53              0.0000000000
      7057        59  POPC      H3S           -23.8645587647      -17.8302691607       12.6799583971  MEMB      53              0.0000000000
      7058        59  POPC      C24           -23.2317776991      -19.7242626019       12.1794610520  MEMB      53              0.0000000000
      7059        59  POPC      H4R           -24.0231214404      -20.3747881489       12.6094756024  MEMB      53              0.0000000000
      7060        59  POPC      H4S           -22.2738340570      -20.2858868421       12.1442018752  MEMB      53              0.0000000000
      7061        59  POPC      C25           -23.5370109863      -19.3154721275       10.7348124510  MEMB      53              0.0000000000
      7062        59  POPC      H5R           -22.6612968780      -18.6630120419       10.5305052711  MEMB      53              0.0000000000
      7063        59  POPC      H5S           -24.4468119612      -18.6856636424       10.6351919543  MEMB      53              0.0000000000
      7064        59  POPC      C26           -23.6208262733      -20.3829706759        9.6573171458  MEMB      53              0.0000000000
      7065        59  POPC      H6R           -22.8457895916      -21.1707360180        9.7716191391  MEMB      53              0.0000000000
      7066        59  POPC      H6S           -23.3382956546      -19.8683809528        8.7140811203  MEMB      53              0.0000000000
      7067        59  POPC      C27           -24.9776360365      -20.9975193805        9.3916575780  MEMB      53              0.0000000000
      7068        59  POPC      H7R           -25.7950469317      -20.2456475858        9.4207945920  MEMB      53              0.0000000000
      7069        59  POPC      H7S           -25.1842377894      -21.7176760638       10.2120294179  MEMB      53              0.0000000000
      7070        59  POPC      C28           -25.1831917361      -21.4553048371        7.9002874264  MEMB      53              0.0000000000
      7071        59  POPC      H8R           -24.2016791355      -21.7794727934        7.4930167912  MEMB      53              0.0000000000
      7072        59  POPC      H8S           -25.2865137926      -20.6028463940        7.1953334581  MEMB      53              0.0000000000
      7073        59  POPC      C29           -26.0983175623      -22.6316264564        7.9145165858  MEMB      53              0.0000000000
      7074        59  POPC      H91           -25.9668583866      -23.4516753996        8.6357919631  MEMB      53              0.0000000000
      7075        59  POPC      C210          -27.0416846852      -22.9146358645        7.0102731253  MEMB      53              0.0000000000
      7076        59  POPC      H101          -27.6279867377      -23.8284000703        7.1871505266  MEMB      53              0.0000000000
      7077        59  POPC      C211          -27.4192113844      -22.0678445023        5.7891206493  MEMB      53              0.0000000000
      7078        59  POPC      H11R          -26.6780612067      -21.2645738754        5.5896867264  MEMB      53              0.0000000000
      7079        59  POPC      H11S          -28.4221069524      -21.6256285416        5.9706872619  MEMB      53              0.0000000000
      7080        59  POPC      C212          -27.4454630518      -22.9548627790        4.5181947754  MEMB      53              0.0000000000
      7081        59  POPC      H12R          -27.7339542419      -22.3679250951        3.6200871024  MEMB      53              0.0000000000
      7082        59  POPC      H12S          -28.2788168511      -23.6731622225        4.6727545905  MEMB      53              0.0000000000
      7083        59  POPC      C213          -26.1444519061      -23.7153115267        4.1599780241  MEMB      53              0.0000000000
      7084        59  POPC      H13R          -25.8272207506      -24.3721267337        4.9979987321  MEMB      53              0.0000000000
      7085        59  POPC      H13S          -25.3763329830      -22.9266389223        4.0106148475  MEMB      53              0.0000000000
      7086        59  POPC      C214          -26.3306826457      -24.4377738833        2.8658233624  MEMB      53              0.0000000000
      7087        59  POPC      H14R          -26.5703966027      -23.7823578504        2.0013644193  MEMB      53              0.0000000000
      7088        59  POPC      H14S          -27.1971641675      -25.1197253836        3.0017407519  MEMB      53              0.0000000000
      7089        59  POPC      C215          -25.0735601831      -25.3507127254        2.6004006102  MEMB      53              0.0000000000
      7090        59  POPC      H15R          -25.2804905671      -26.2378283815        1.9643774288  MEMB      53              0.0000000000
      7091        59  POPC      H15S          -24.7773633004      -25.7631230866        3.5885844237  MEMB      53              0.0000000000
      7092        59  POPC      C216          -23.7374099133      -24.7069058890        2.0116352732  MEMB      53              0.0000000000
      7093        59  POPC      H16R          -23.0010194660      -25.5227903263        1.8492078497  MEMB      53              0.0000000000
      7094        59  POPC      H16S          -23.2302060536      -23.9094804136        2.5957399275  MEMB      53              0.0000000000
      7095        59  POPC      C217          -24.1078810312      -24.0101017730        0.6622553776  MEMB      53              0.0000000000
      7096        59  POPC      H17R          -24.7106670195      -23.0964480694        0.8525360403  MEMB      53              0.0000000000
      7097        59  POPC      H17S          -24.6660025297      -24.6231758421       -0.0773128758  MEMB      53              0.0000000000
      7098        59  POPC      C218          -22.9373300138      -23.5959393624       -0.1782476698  MEMB      53              0.0000000000
      7099        59  POPC      H18R          -22.4751167087      -24.4354771504       -0.7402590846  MEMB      53              0.0000000000
      7100        59  POPC      H18S          -22.2524449663      -23.0482291248        0.5038559461  MEMB      53              0.0000000000
      7101        59  POPC      H18T          -23.3184846525      -23.0458176131       -1.0650439652  MEMB      53              0.0000000000
      7102        59  POPC      C33           -20.1445129716      -22.7575779912       10.6620008847  MEMB      53              0.0000000000
      7103        59  POPC      H3X           -19.0642738051      -22.5249238859       10.5467769974  MEMB      53              0.0000000000
      7104        59  POPC      H3Y           -20.8376271749      -21.9280603741       10.4054582128  MEMB      53              0.0000000000
      7105        59  POPC      C34           -20.4146397699      -23.8955114000        9.7518704548  MEMB      53              0.0000000000
      7106        59  POPC      H4X           -21.4190426767      -24.3648863996        9.8238637358  MEMB      53              0.0000000000
      7107        59  POPC      H4Y           -19.8348060087      -24.7946704492       10.0512483760  MEMB      53              0.0000000000
      7108        59  POPC      C35           -20.0583065620      -23.5922810603        8.3043774124  MEMB      53              0.0000000000
      7109        59  POPC      H5X           -19.7690736558      -24.4061335885        7.6055861200  MEMB      53              0.0000000000
      7110        59  POPC      H5Y           -19.0606104623      -23.1186911314        8.4253568625  MEMB      53              0.0000000000
      7111        59  POPC      C36           -21.0148861406      -22.7157703182        7.4474974878  MEMB      53              0.0000000000
      7112        59  POPC      H6X           -21.2327269661      -21.6940932265        7.8257059292  MEMB      53              0.0000000000
      7113        59  POPC      H6Y           -21.9952691347      -23.2373903155        7.4804026868  MEMB      53              0.0000000000
      7114        59  POPC      C37           -20.4026838639      -22.5631490427        6.0784012913  MEMB      53              0.0000000000
      7115        59  POPC      H7X           -20.3227521052      -23.5490699384        5.5725442986  MEMB      53              0.0000000000
      7116        59  POPC      H7Y           -19.3402213984      -22.3575588980        6.3298516018  MEMB      53              0.0000000000
      7117        59  POPC      C38           -20.9575315441      -21.4554584007        5.2282313134  MEMB      53              0.0000000000
      7118        59  POPC      H8X           -20.1415536345      -21.3293999680        4.4848539264  MEMB      53              0.0000000000
      7119        59  POPC      H8Y           -20.9627407256      -20.5083051988        5.8089165234  MEMB      53              0.0000000000
      7120        59  POPC      C39           -22.3059440313      -21.7993517819        4.6172874676  MEMB      53              0.0000000000
      7121        59  POPC      H9X           -23.0404454129      -22.3523591701        5.2409955879  MEMB      53              0.0000000000
      7122        59  POPC      H9Y           -22.2071451378      -22.3457638305        3.6550014319  MEMB      53              0.0000000000
      7123        59  POPC      C310          -23.1343340728      -20.5311238867        4.2460090170  MEMB      53              0.0000000000
      7124        59  POPC      H10X          -23.7425394625      -20.1430224895        5.0908667221  MEMB      53              0.0000000000
      7125        59  POPC      H10Y          -23.8723744568      -20.9601576771        3.5349905226  MEMB      53              0.0000000000
      7126        59  POPC      C311          -22.3575715256      -19.2292540845        3.7267703354  MEMB      53              0.0000000000
      7127        59  POPC      H11X          -21.5537235617      -19.0216212814        4.4650375341  MEMB      53              0.0000000000
      7128        59  POPC      H11Y          -23.0727715973      -18.3815077588        3.7910836495  MEMB      53              0.0000000000
      7129        59  POPC      C312          -21.8257241801      -19.3677846110        2.3003778713  MEMB      53              0.0000000000
      7130        59  POPC      H12X          -21.3968822706      -20.3595771061        2.0419909868  MEMB      53              0.0000000000
      7131        59  POPC      H12Y          -20.9578418446      -18.6787978800        2.2203835298  MEMB      53              0.0000000000
      7132        59  POPC      C313          -22.7514063747      -18.9546474705        1.1565299201  MEMB      53              0.0000000000
      7133        59  POPC      H13X          -22.2238984197      -19.0679728501        0.1853380326  MEMB      53              0.0000000000
      7134        59  POPC      H13Y          -22.8390570099      -17.8532320119        1.2728153095  MEMB      53              0.0000000000
      7135        59  POPC      C314          -24.1981525637      -19.4643938480        1.1983596534  MEMB      53              0.0000000000
      7136        59  POPC      H14X          -24.7126284905      -19.2468898333        2.1587384527  MEMB      53              0.0000000000
      7137        59  POPC      H14Y          -24.1244867914      -20.5727655049        1.2185262334  MEMB      53              0.0000000000
      7138        59  POPC      C315          -24.9582675032      -18.8948461630       -0.0033079739  MEMB      53              0.0000000000
      7139        59  POPC      H15X          -24.2128696000      -18.7174138372       -0.8078084891  MEMB      53              0.0000000000
      7140        59  POPC      H15Y          -25.3264696407      -17.8689274014        0.2117250897  MEMB      53              0.0000000000
      7141        59  POPC      C316          -26.1720493572      -19.7372587646       -0.4040187781  MEMB      53              0.0000000000
      7142        59  POPC      H16X          -26.6021951438      -19.2655940806       -1.3133198219  MEMB      53              0.0000000000
      7143        59  POPC      H16Y          -26.8182696323      -19.8270631286        0.4952348812  MEMB      53              0.0000000000
      7144        59  POPC      H16Z          -25.7958936977      -20.7578475145       -0.6303509301  MEMB      53              0.0000000000
      7145        60  POPC      N             -24.8712742401       19.1069064339       19.5286186934  MEMB      54              0.0000000000
      7146        60  POPC      C12           -25.2992499399       19.2073358375       18.0796724194  MEMB      54              0.0000000000
      7147        60  POPC      H12A          -24.7628018664       18.4159878040       17.5772862957  MEMB      54              0.0000000000
      7148        60  POPC      H12B          -25.0468862481       20.2096030467       17.7663467664  MEMB      54              0.0000000000
      7149        60  POPC      C13           -25.4135662411       20.2889385298       20.3271415559  MEMB      54              0.0000000000
      7150        60  POPC      H13A          -25.0754004595       21.2020630953       19.8599721214  MEMB      54              0.0000000000
      7151        60  POPC      H13B          -26.4916272899       20.2504429065       20.3791268566  MEMB      54              0.0000000000
      7152        60  POPC      H13C          -25.0046818625       20.2820964610       21.3267248670  MEMB      54              0.0000000000
      7153        60  POPC      C14           -25.4355760246       17.8010388491       20.0910394275  MEMB      54              0.0000000000
      7154        60  POPC      H14A          -26.5028200152       17.6804012015       19.9777392976  MEMB      54              0.0000000000
      7155        60  POPC      H14B          -24.9659250062       16.9563129738       19.6090994758  MEMB      54              0.0000000000
      7156        60  POPC      H14C          -25.2785279115       17.8158326938       21.1594575273  MEMB      54              0.0000000000
      7157        60  POPC      C15           -23.3713708996       19.1027085895       19.6677035143  MEMB      54              0.0000000000
      7158        60  POPC      H15A          -23.1901514673       19.3534989298       20.7024323798  MEMB      54              0.0000000000
      7159        60  POPC      H15B          -22.9572837163       19.7467619359       18.9060426547  MEMB      54              0.0000000000
      7160        60  POPC      H15C          -22.9989744524       18.1156494463       19.4365430265  MEMB      54              0.0000000000
      7161        60  POPC      C11           -26.7447902927       18.9825333366       17.6613393650  MEMB      54              0.0000000000
      7162        60  POPC      H11A          -27.0091204331       17.9394078017       17.9376360339  MEMB      54              0.0000000000
      7163        60  POPC      H11B          -26.8630079834       19.0088395938       16.5569602047  MEMB      54              0.0000000000
      7164        60  POPC      P             -29.0120778252       19.3907774834       18.8160778648  MEMB      54              0.0000000000
      7165        60  POPC      O13           -29.7430512808       20.6522993743       19.2418811889  MEMB      54              0.0000000000
      7166        60  POPC      O14           -28.8844444093       18.3172248250       19.8045143471  MEMB      54              0.0000000000
      7167        60  POPC      O12           -27.6315814052       19.8586066477       18.2845266609  MEMB      54              0.0000000000
      7168        60  POPC      O11           -29.7471090814       18.8228801462       17.4974849683  MEMB      54              0.0000000000
      7169        60  POPC      C1            -30.3283407720       19.6826409338       16.4964585967  MEMB      54              0.0000000000
      7170        60  POPC      HA            -29.6462481314       20.2808367404       15.8551845895  MEMB      54              0.0000000000
      7171        60  POPC      HB            -31.1013784626       20.3511192421       16.9322000172  MEMB      54              0.0000000000
      7172        60  POPC      C2            -31.1452452766       18.7902811884       15.4462663421  MEMB      54              0.0000000000
      7173        60  POPC      HS            -31.8943965174       18.2289476820       16.0445960370  MEMB      54              0.0000000000
      7174        60  POPC      O21           -30.2729313401       17.9512926769       14.7185379991  MEMB      54              0.0000000000
      7175        60  POPC      C21           -30.8751115250       16.7872236829       14.3226671477  MEMB      54              0.0000000000
      7176        60  POPC      O22           -31.9569374665       16.4413522323       14.6911328321  MEMB      54              0.0000000000
      7177        60  POPC      C22           -29.9577583761       16.0593035488       13.2841128482  MEMB      54              0.0000000000
      7178        60  POPC      H2R           -29.8350286301       16.6842366571       12.3737740336  MEMB      54              0.0000000000
      7179        60  POPC      H2S           -30.5403409780       15.2519199742       12.7911113261  MEMB      54              0.0000000000
      7180        60  POPC      C3            -31.9450748893       19.6865479808       14.5284563622  MEMB      54              0.0000000000
      7181        60  POPC      HX            -32.7336094740       20.2648076391       15.0558563252  MEMB      54              0.0000000000
      7182        60  POPC      HY            -32.5752305245       19.1149366965       13.8139736180  MEMB      54              0.0000000000
      7183        60  POPC      O31           -30.9759284400       20.5948452898       13.8939421497  MEMB      54              0.0000000000
      7184        60  POPC      C31           -30.6435005056       20.3798034249       12.5494193826  MEMB      54              0.0000000000
      7185        60  POPC      O32           -31.0582230095       19.5041833671       11.8324597538  MEMB      54              0.0000000000
      7186        60  POPC      C32           -29.7558151021       21.4005747145       11.9478159892  MEMB      54              0.0000000000
      7187        60  POPC      H2X           -29.8555750753       22.3582884664       12.5020299806  MEMB      54              0.0000000000
      7188        60  POPC      H2Y           -30.0125487925       21.5530302463       10.8776920465  MEMB      54              0.0000000000
      7189        60  POPC      C23           -28.7833008950       15.5152105344       14.0390676906  MEMB      54              0.0000000000
      7190        60  POPC      H3R           -29.0931770086       14.7249278971       14.7558320712  MEMB      54              0.0000000000
      7191        60  POPC      H3S           -28.3055370881       16.3851821987       14.5382793669  MEMB      54              0.0000000000
      7192        60  POPC      C24           -27.7797959327       14.7786567592       13.1110495485  MEMB      54              0.0000000000
      7193        60  POPC      H4R           -28.3847935092       14.1336866430       12.4385081589  MEMB      54              0.0000000000
      7194        60  POPC      H4S           -27.1104808140       14.1672256045       13.7533038471  MEMB      54              0.0000000000
      7195        60  POPC      C25           -26.7994865711       15.7261581027       12.3393324266  MEMB      54              0.0000000000
      7196        60  POPC      H5R           -27.4289671396       16.2436141338       11.5841404014  MEMB      54              0.0000000000
      7197        60  POPC      H5S           -26.1654939814       15.0573270440       11.7188166135  MEMB      54              0.0000000000
      7198        60  POPC      C26           -25.9719562710       16.6406584217       13.2363509673  MEMB      54              0.0000000000
      7199        60  POPC      H6R           -25.7978758149       15.9943495686       14.1230877586  MEMB      54              0.0000000000
      7200        60  POPC      H6S           -26.6307011593       17.4964396698       13.4971478267  MEMB      54              0.0000000000
      7201        60  POPC      C27           -24.5879403958       17.0642550999       12.6862151161  MEMB      54              0.0000000000
      7202        60  POPC      H7R           -23.8966415016       16.2013216520       12.7947159496  MEMB      54              0.0000000000
      7203        60  POPC      H7S           -24.0587065796       17.8942657207       13.2013022626  MEMB      54              0.0000000000
      7204        60  POPC      C28           -24.5515817075       17.3488086901       11.1292762745  MEMB      54              0.0000000000
      7205        60  POPC      H8R           -24.9225005980       16.3915566393       10.7045311812  MEMB      54              0.0000000000
      7206        60  POPC      H8S           -23.4564035485       17.3955486002       10.9483859856  MEMB      54              0.0000000000
      7207        60  POPC      C29           -25.0550256298       18.6983060891       10.5906827733  MEMB      54              0.0000000000
      7208        60  POPC      H91           -24.4691198785       19.6292806941       10.5916281635  MEMB      54              0.0000000000
      7209        60  POPC      C210          -26.1649023383       18.8399947089        9.8336388346  MEMB      54              0.0000000000
      7210        60  POPC      H101          -26.3285707918       19.9207429725        9.7103674023  MEMB      54              0.0000000000
      7211        60  POPC      C211          -27.1420982162       17.7467592181        9.3603070416  MEMB      54              0.0000000000
      7212        60  POPC      H11R          -28.1226350172       17.9540308163        9.8397936722  MEMB      54              0.0000000000
      7213        60  POPC      H11S          -26.8053280831       16.7208698252        9.6219519972  MEMB      54              0.0000000000
      7214        60  POPC      C212          -27.1449901142       17.7525895058        7.8270980662  MEMB      54              0.0000000000
      7215        60  POPC      H12R          -26.2038417973       17.2766051266        7.4778134438  MEMB      54              0.0000000000
      7216        60  POPC      H12S          -27.2413438864       18.7097754749        7.2713712652  MEMB      54              0.0000000000
      7217        60  POPC      C213          -28.2567072865       16.7787318499        7.3319624834  MEMB      54              0.0000000000
      7218        60  POPC      H13R          -29.2020198513       17.2924954245        7.0549206612  MEMB      54              0.0000000000
      7219        60  POPC      H13S          -28.5115191413       16.0927116160        8.1678864061  MEMB      54              0.0000000000
      7220        60  POPC      C214          -27.9219096825       15.8100104407        6.1714197893  MEMB      54              0.0000000000
      7221        60  POPC      H14R          -28.8507157616       15.2098084396        6.0646564256  MEMB      54              0.0000000000
      7222        60  POPC      H14S          -27.0534407656       15.1623000764        6.4174965980  MEMB      54              0.0000000000
      7223        60  POPC      C215          -27.3914289583       16.6033953419        4.9663946769  MEMB      54              0.0000000000
      7224        60  POPC      H15R          -26.5881016588       17.2315895270        5.4072559420  MEMB      54              0.0000000000
      7225        60  POPC      H15S          -28.1567288189       17.2634111425        4.5048576244  MEMB      54              0.0000000000
      7226        60  POPC      C216          -26.9014616069       15.7380155005        3.8051589644  MEMB      54              0.0000000000
      7227        60  POPC      H16R          -26.3366248477       14.9166060052        4.2956354237  MEMB      54              0.0000000000
      7228        60  POPC      H16S          -26.2216780733       16.3736578815        3.1983861735  MEMB      54              0.0000000000
      7229        60  POPC      C217          -27.9207981466       15.1660531968        2.8359248261  MEMB      54              0.0000000000
      7230        60  POPC      H17R          -28.5060228607       15.9047472698        2.2475673946  MEMB      54              0.0000000000
      7231        60  POPC      H17S          -28.6429462348       14.4440936382        3.2736437355  MEMB      54              0.0000000000
      7232        60  POPC      C218          -27.1979272432       14.3038562949        1.7271150169  MEMB      54              0.0000000000
      7233        60  POPC      H18R          -26.8008047657       13.3931848862        2.2243993890  MEMB      54              0.0000000000
      7234        60  POPC      H18S          -26.3495365708       14.8634881721        1.2783751861  MEMB      54              0.0000000000
      7235        60  POPC      H18T          -27.9073841327       13.9354837731        0.9555619100  MEMB      54              0.0000000000
      7236        60  POPC      C33           -28.3238290231       20.7488083698       11.8500445063  MEMB      54              0.0000000000
      7237        60  POPC      H3X           -28.3843791681       20.0841769740       10.9618329861  MEMB      54              0.0000000000
      7238        60  POPC      H3Y           -27.8760903363       20.1922126945       12.7009568767  MEMB      54              0.0000000000
      7239        60  POPC      C34           -27.2902909262       21.7707689307       11.5416443605  MEMB      54              0.0000000000
      7240        60  POPC      H4X           -26.3043660917       21.3024204129       11.3344660678  MEMB      54              0.0000000000
      7241        60  POPC      H4Y           -27.2104541329       22.4189642846       12.4404156121  MEMB      54              0.0000000000
      7242        60  POPC      C35           -27.5950667674       22.7003139003       10.3398968840  MEMB      54              0.0000000000
      7243        60  POPC      H5X           -26.6634683470       23.2962079794       10.2333338794  MEMB      54              0.0000000000
      7244        60  POPC      H5Y           -28.4894029106       23.3373369637       10.5092639681  MEMB      54              0.0000000000
      7245        60  POPC      C36           -27.8250779478       22.0500062665        8.9484637878  MEMB      54              0.0000000000
      7246        60  POPC      H6X           -28.8199463611       21.5560260609        8.9251901225  MEMB      54              0.0000000000
      7247        60  POPC      H6Y           -27.0065747904       21.3187492481        8.7763101791  MEMB      54              0.0000000000
      7248        60  POPC      C37           -27.6254995967       22.9890395476        7.7755217654  MEMB      54              0.0000000000
      7249        60  POPC      H7X           -27.2086914427       23.9394123559        8.1722374200  MEMB      54              0.0000000000
      7250        60  POPC      H7Y           -28.5889728747       23.1606304570        7.2495975522  MEMB      54              0.0000000000
      7251        60  POPC      C38           -26.7304530237       22.5283076523        6.6164247886  MEMB      54              0.0000000000
      7252        60  POPC      H8X           -27.0304544520       21.4889123100        6.3634871985  MEMB      54              0.0000000000
      7253        60  POPC      H8Y           -25.7110512626       22.5328745867        7.0581494576  MEMB      54              0.0000000000
      7254        60  POPC      C39           -26.5748106806       23.3891609416        5.3582772239  MEMB      54              0.0000000000
      7255        60  POPC      H9X           -25.7198750467       23.0319105889        4.7452704257  MEMB      54              0.0000000000
      7256        60  POPC      H9Y           -26.1918351347       24.3534764797        5.7554509575  MEMB      54              0.0000000000
      7257        60  POPC      C310          -27.7279529489       23.6617605556        4.3510716445  MEMB      54              0.0000000000
      7258        60  POPC      H10X          -27.4243270144       24.4593142254        3.6397066786  MEMB      54              0.0000000000
      7259        60  POPC      H10Y          -28.5681633958       23.9931508741        4.9980244674  MEMB      54              0.0000000000
      7260        60  POPC      C311          -28.0901394154       22.4777777016        3.4723905011  MEMB      54              0.0000000000
      7261        60  POPC      H11X          -27.1909945053       22.2682095054        2.8543780419  MEMB      54              0.0000000000
      7262        60  POPC      H11Y          -28.9159605523       22.8805089162        2.8477729380  MEMB      54              0.0000000000
      7263        60  POPC      C312          -28.5699467703       21.1865625894        4.0895222834  MEMB      54              0.0000000000
      7264        60  POPC      H12X          -28.9212090227       21.4556207568        5.1086121178  MEMB      54              0.0000000000
      7265        60  POPC      H12Y          -27.7899519721       20.3990996161        4.0131594450  MEMB      54              0.0000000000
      7266        60  POPC      C313          -29.8822980758       20.6071817644        3.4366970735  MEMB      54              0.0000000000
      7267        60  POPC      H13X          -30.6042251055       21.4490349070        3.3701732113  MEMB      54              0.0000000000
      7268        60  POPC      H13Y          -30.4136732071       19.8305291695        4.0272668781  MEMB      54              0.0000000000
      7269        60  POPC      C314          -29.4840576801       20.0518513977        2.0655495496  MEMB      54              0.0000000000
      7270        60  POPC      H14X          -28.8060687106       19.1724383380        2.0297066454  MEMB      54              0.0000000000
      7271        60  POPC      H14Y          -29.0014062321       20.8501676506        1.4621759914  MEMB      54              0.0000000000
      7272        60  POPC      C315          -30.7391506974       19.5469607351        1.2938188032  MEMB      54              0.0000000000
      7273        60  POPC      H15X          -31.3652963083       20.4302550861        1.0447111362  MEMB      54              0.0000000000
      7274        60  POPC      H15Y          -31.2797254461       18.9035286646        2.0205195085  MEMB      54              0.0000000000
      7275        60  POPC      C316          -30.6737717947       18.8684242581       -0.0268785549  MEMB      54              0.0000000000
      7276        60  POPC      H16X          -29.9769545466       18.0032125460       -0.0136317797  MEMB      54              0.0000000000
      7277        60  POPC      H16Y          -30.1963813828       19.6016857656       -0.7115287101  MEMB      54              0.0000000000
      7278        60  POPC      H16Z          -31.6851224227       18.5151287871       -0.3212806222  MEMB      54              0.0000000000
      7279        61  POPS      N              21.4659923268       23.5597682073       18.0636794307  MEMB      55              0.0000000000
      7280        61  POPS      HN1            22.1994379621       23.0712932024       17.5113664316  MEMB      55              0.0000000000
      7281        61  POPS      HN2            21.0056639180       22.7955478280       18.5981554308  MEMB      55              0.0000000000
      7282        61  POPS      HN3            20.8527342650       24.1988445591       17.5186143989  MEMB      55              0.0000000000
      7283        61  POPS      C12            22.2891240294       24.3325462991       19.0151923592  MEMB      55              0.0000000000
      7284        61  POPS      H12A           23.0059033959       23.5824004328       19.3150399203  MEMB      55              0.0000000000
      7285        61  POPS      C13            21.4125264865       24.8303843769       20.1815526939  MEMB      55              0.0000000000
      7286        61  POPS      O13A           20.1282388360       24.7882017980       20.1467995355  MEMB      55              0.0000000000
      7287        61  POPS      O13B           22.0043425735       25.4062983759       21.0901192879  MEMB      55              0.0000000000
      7288        61  POPS      C11            22.9799424491       25.5888126690       18.2965152170  MEMB      55              0.0000000000
      7289        61  POPS      H11A           22.1921512764       26.3230591603       18.0234067633  MEMB      55              0.0000000000
      7290        61  POPS      H11B           23.3807300104       25.2264593642       17.3257473224  MEMB      55              0.0000000000
      7291        61  POPS      P              25.0987220422       27.2148379489       18.4736128594  MEMB      55              0.0000000000
      7292        61  POPS      O13            26.0209075819       26.2634888891       17.7537563494  MEMB      55              0.0000000000
      7293        61  POPS      O14            25.5568293811       28.1733948620       19.5062550431  MEMB      55              0.0000000000
      7294        61  POPS      O12            23.9293787621       26.2519624351       19.1056005686  MEMB      55              0.0000000000
      7295        61  POPS      O11            24.1483102321       27.9562948435       17.3669166651  MEMB      55              0.0000000000
      7296        61  POPS      C1             23.4131377862       29.0943274243       17.8138661731  MEMB      55              0.0000000000
      7297        61  POPS      HA             24.0736709776       29.9570169859       18.0457782278  MEMB      55              0.0000000000
      7298        61  POPS      HB             22.7826028400       28.8218394849       18.6870769387  MEMB      55              0.0000000000
      7299        61  POPS      C2             22.4754793198       29.7000329456       16.6870545408  MEMB      55              0.0000000000
      7300        61  POPS      HS             21.6945470958       30.3643284801       17.1150465501  MEMB      55              0.0000000000
      7301        61  POPS      O21            21.8478164413       28.5887905212       16.0315099166  MEMB      55              0.0000000000
      7302        61  POPS      C21            20.5784753390       28.7392358687       15.7320743798  MEMB      55              0.0000000000
      7303        61  POPS      O22            20.0200558507       29.7636559443       15.5962671914  MEMB      55              0.0000000000
      7304        61  POPS      C22            20.0533199839       27.2801951859       15.5106124775  MEMB      55              0.0000000000
      7305        61  POPS      H2R            19.1355794266       27.4999373763       14.9242793856  MEMB      55              0.0000000000
      7306        61  POPS      H2S            19.6107534424       26.7705523121       16.3930636602  MEMB      55              0.0000000000
      7307        61  POPS      C3             23.2622098401       30.4332882371       15.5565018841  MEMB      55              0.0000000000
      7308        61  POPS      HX             23.8164110207       31.3045781720       15.9664233114  MEMB      55              0.0000000000
      7309        61  POPS      HY             22.5010158361       30.7628097538       14.8173671096  MEMB      55              0.0000000000
      7310        61  POPS      O31            24.3061393523       29.6560947424       14.9279104309  MEMB      55              0.0000000000
      7311        61  POPS      C31            23.9844942374       28.9806787085       13.8052429387  MEMB      55              0.0000000000
      7312        61  POPS      O32            22.9122907790       29.0384378722       13.2841287036  MEMB      55              0.0000000000
      7313        61  POPS      C32            25.1021744340       28.0645876610       13.3749553728  MEMB      55              0.0000000000
      7314        61  POPS      H2X            25.9505566382       28.2179665586       14.0757006149  MEMB      55              0.0000000000
      7315        61  POPS      H2Y            25.4771235011       28.3211929683       12.3611076205  MEMB      55              0.0000000000
      7316        61  POPS      C23            20.9449299208       26.3228549713       14.6878581916  MEMB      55              0.0000000000
      7317        61  POPS      H3R            21.7577592083       26.0195193452       15.3818443980  MEMB      55              0.0000000000
      7318        61  POPS      H3S            21.4570494608       26.8891972332       13.8808195459  MEMB      55              0.0000000000
      7319        61  POPS      C24            20.3482166272       25.0431828360       14.0896640162  MEMB      55              0.0000000000
      7320        61  POPS      H4R            19.8191671912       24.3432732273       14.7712459368  MEMB      55              0.0000000000
      7321        61  POPS      H4S            21.2194296234       24.5093392117       13.6534070849  MEMB      55              0.0000000000
      7322        61  POPS      C25            19.3204479085       25.3582371417       12.9742273415  MEMB      55              0.0000000000
      7323        61  POPS      H5R            18.4860912197       26.0364579191       13.2538459334  MEMB      55              0.0000000000
      7324        61  POPS      H5S            18.9495311451       24.3319881761       12.7655297681  MEMB      55              0.0000000000
      7325        61  POPS      C26            19.8390321608       26.0479276943       11.6472577349  MEMB      55              0.0000000000
      7326        61  POPS      H6R            20.3645063711       26.9849523426       11.9304227964  MEMB      55              0.0000000000
      7327        61  POPS      H6S            18.8478243634       26.1928614189       11.1668181403  MEMB      55              0.0000000000
      7328        61  POPS      C27            20.6436737326       25.2016295248       10.6318543786  MEMB      55              0.0000000000
      7329        61  POPS      H7R            20.2185949291       24.1752643360       10.6461126732  MEMB      55              0.0000000000
      7330        61  POPS      H7S            21.7038333588       25.1383474561       10.9580110371  MEMB      55              0.0000000000
      7331        61  POPS      C28            20.5706708143       25.6744237758        9.1206930362  MEMB      55              0.0000000000
      7332        61  POPS      H8R            19.5418966823       25.6912668217        8.7015733746  MEMB      55              0.0000000000
      7333        61  POPS      H8S            21.1161490475       24.8639601104        8.5916150951  MEMB      55              0.0000000000
      7334        61  POPS      C29            21.2490310227       27.0173135965        8.8685935146  MEMB      55              0.0000000000
      7335        61  POPS      H91            22.2970312751       26.9075707496        9.1842698258  MEMB      55              0.0000000000
      7336        61  POPS      C210           20.7965349453       28.1755509733        8.3622358291  MEMB      55              0.0000000000
      7337        61  POPS      H101           21.4312639035       29.0700542404        8.4458010624  MEMB      55              0.0000000000
      7338        61  POPS      C211           19.4965989008       28.6134977213        7.8408032101  MEMB      55              0.0000000000
      7339        61  POPS      H11R           18.9699946568       29.3590494034        8.4741767762  MEMB      55              0.0000000000
      7340        61  POPS      H11S           18.7770621636       27.7676354005        7.8075626720  MEMB      55              0.0000000000
      7341        61  POPS      C212           19.8254767616       29.2529488395        6.5025037954  MEMB      55              0.0000000000
      7342        61  POPS      H12R           20.3103130086       30.2397960822        6.6618376860  MEMB      55              0.0000000000
      7343        61  POPS      H12S           18.8314205984       29.4962440507        6.0700914187  MEMB      55              0.0000000000
      7344        61  POPS      C213           20.6054438285       28.4355040542        5.4879949622  MEMB      55              0.0000000000
      7345        61  POPS      H13R           20.0270518697       27.5012775761        5.3236644856  MEMB      55              0.0000000000
      7346        61  POPS      H13S           21.6505578953       28.1467924799        5.7302829109  MEMB      55              0.0000000000
      7347        61  POPS      C214           20.7915735169       29.2533911547        4.1758904950  MEMB      55              0.0000000000
      7348        61  POPS      H14R           21.7307598455       29.8468977907        4.1762529293  MEMB      55              0.0000000000
      7349        61  POPS      H14S           19.9666308462       29.9412572235        3.8919350703  MEMB      55              0.0000000000
      7350        61  POPS      C215           21.1224281981       28.3784519813        2.9255306663  MEMB      55              0.0000000000
      7351        61  POPS      H15R           20.3051530003       27.6287670396        2.8595410995  MEMB      55              0.0000000000
      7352        61  POPS      H15S           22.0640657767       27.8268318421        3.1337485893  MEMB      55              0.0000000000
      7353        61  POPS      C216           21.4557573654       29.2260068669        1.6602852174  MEMB      55              0.0000000000
      7354        61  POPS      H16R           22.4720999260       29.6299932544        1.8556404666  MEMB      55              0.0000000000
      7355        61  POPS      H16S           20.7242473831       30.0620701790        1.6457214001  MEMB      55              0.0000000000
      7356        61  POPS      C217           21.3490794270       28.4549391917        0.3645798261  MEMB      55              0.0000000000
      7357        61  POPS      H17R           20.3175458742       28.0860087462        0.1797828577  MEMB      55              0.0000000000
      7358        61  POPS      H17S           22.1004014608       27.6366269861        0.3503979029  MEMB      55              0.0000000000
      7359        61  POPS      C218           21.7364184106       29.3868677170       -0.8260949597  MEMB      55              0.0000000000
      7360        61  POPS      H18R           22.0692083984       28.8592897691       -1.7454606798  MEMB      55              0.0000000000
      7361        61  POPS      H18S           22.6710491962       29.9188722172       -0.5472444310  MEMB      55              0.0000000000
      7362        61  POPS      H18T           20.9674000822       30.1785225579       -0.9534298236  MEMB      55              0.0000000000
      7363        61  POPS      C33            24.5611219688       26.6456673134       13.3930685055  MEMB      55              0.0000000000
      7364        61  POPS      H3X            23.7585105957       26.6552461405       12.6249253925  MEMB      55              0.0000000000
      7365        61  POPS      H3Y            24.0255978659       26.3603406171       14.3237264156  MEMB      55              0.0000000000
      7366        61  POPS      C34            25.7096918752       25.6988668161       13.1846549460  MEMB      55              0.0000000000
      7367        61  POPS      H4X            26.4126544183       25.8210145694       14.0362677979  MEMB      55              0.0000000000
      7368        61  POPS      H4Y            26.2468051476       25.8914372609       12.2313727174  MEMB      55              0.0000000000
      7369        61  POPS      C35            25.1946869576       24.2661788724       13.1309183437  MEMB      55              0.0000000000
      7370        61  POPS      H5X            24.1363314026       24.2045366916       12.7986459735  MEMB      55              0.0000000000
      7371        61  POPS      H5Y            25.2741906092       23.8940813232       14.1747304141  MEMB      55              0.0000000000
      7372        61  POPS      C36            26.0481309375       23.3034319955       12.2343973714  MEMB      55              0.0000000000
      7373        61  POPS      H6X            25.8303099385       22.2573553822       12.5386971622  MEMB      55              0.0000000000
      7374        61  POPS      H6Y            27.1448240608       23.4354204833       12.3534098317  MEMB      55              0.0000000000
      7375        61  POPS      C37            25.7775553442       23.5489471691       10.8215932306  MEMB      55              0.0000000000
      7376        61  POPS      H7X            26.1946510797       24.5438713226       10.5561149150  MEMB      55              0.0000000000
      7377        61  POPS      H7Y            24.7314570820       23.4463498874       10.4617693992  MEMB      55              0.0000000000
      7378        61  POPS      C38            26.6100229913       22.7480738403        9.8741945782  MEMB      55              0.0000000000
      7379        61  POPS      H8X            26.5556021304       21.6560615738       10.0713469850  MEMB      55              0.0000000000
      7380        61  POPS      H8Y            27.6578643011       23.0677107261       10.0590786187  MEMB      55              0.0000000000
      7381        61  POPS      C39            26.2831666703       22.9341208444        8.3837781448  MEMB      55              0.0000000000
      7382        61  POPS      H9X            27.0188180241       22.4349699038        7.7174554246  MEMB      55              0.0000000000
      7383        61  POPS      H9Y            26.3391026823       24.0261753326        8.1872862431  MEMB      55              0.0000000000
      7384        61  POPS      C310           24.8438620835       22.4692548063        7.9022035169  MEMB      55              0.0000000000
      7385        61  POPS      H10X           24.0762975255       22.8626529588        8.6024919918  MEMB      55              0.0000000000
      7386        61  POPS      H10Y           24.8939865418       21.3619803331        7.9780414538  MEMB      55              0.0000000000
      7387        61  POPS      C311           24.5579105009       22.7375740297        6.4103405886  MEMB      55              0.0000000000
      7388        61  POPS      H11X           23.6238925998       22.1785753501        6.1879614024  MEMB      55              0.0000000000
      7389        61  POPS      H11Y           25.3938402027       22.4261447574        5.7481061655  MEMB      55              0.0000000000
      7390        61  POPS      C312           24.3799275685       24.2497261995        6.0252603766  MEMB      55              0.0000000000
      7391        61  POPS      H12X           25.3382476635       24.7950349189        6.1615767122  MEMB      55              0.0000000000
      7392        61  POPS      H12Y           23.5685981089       24.6711847885        6.6564806018  MEMB      55              0.0000000000
      7393        61  POPS      C313           23.8753844794       24.4607405261        4.5272436712  MEMB      55              0.0000000000
      7394        61  POPS      H13X           22.7783504400       24.3691577537        4.3774100084  MEMB      55              0.0000000000
      7395        61  POPS      H13Y           24.4107313072       23.7112612919        3.9059495331  MEMB      55              0.0000000000
      7396        61  POPS      C314           24.2822489534       25.9099672881        4.0919050509  MEMB      55              0.0000000000
      7397        61  POPS      H14X           25.3682359881       25.9549455544        4.3219708643  MEMB      55              0.0000000000
      7398        61  POPS      H14Y           23.7998419058       26.7264178578        4.6707078530  MEMB      55              0.0000000000
      7399        61  POPS      C315           24.1727870806       26.1557523204        2.6086061081  MEMB      55              0.0000000000
      7400        61  POPS      H15X           24.3767328093       27.2473516675        2.5748680497  MEMB      55              0.0000000000
      7401        61  POPS      H15Y           23.1623468327       25.9716766236        2.1849941089  MEMB      55              0.0000000000
      7402        61  POPS      C316           25.2895501428       25.4190782260        1.7690332949  MEMB      55              0.0000000000
      7403        61  POPS      H16X           26.2410517630       25.9823594908        1.8771070571  MEMB      55              0.0000000000
      7404        61  POPS      H16Y           25.0808379804       25.3336886217        0.6811593492  MEMB      55              0.0000000000
      7405        61  POPS      H16Z           25.3191584995       24.4267153859        2.2676911512  MEMB      55              0.0000000000
      7406        62  POPC      N             -15.6490945335       32.6085513129       20.2859672421  MEMB      56              0.0000000000
      7407        62  POPC      C12           -14.6863077786       33.7156924371       19.8433279918  MEMB      56              0.0000000000
      7408        62  POPC      H12A          -13.9001154577       33.9476815644       20.5465226180  MEMB      56              0.0000000000
      7409        62  POPC      H12B          -15.3187488127       34.5853750796       19.9436792968  MEMB      56              0.0000000000
      7410        62  POPC      C13           -16.7062676050       32.3592500584       19.1634732241  MEMB      56              0.0000000000
      7411        62  POPC      H13A          -16.3277148298       32.0420158090       18.2030253024  MEMB      56              0.0000000000
      7412        62  POPC      H13B          -17.3706543208       31.6050624472       19.5586835577  MEMB      56              0.0000000000
      7413        62  POPC      H13C          -17.3777687453       33.1959451467       19.0392655677  MEMB      56              0.0000000000
      7414        62  POPC      C14           -14.8978517558       31.3235812817       20.6779723337  MEMB      56              0.0000000000
      7415        62  POPC      H14A          -14.0724795950       31.2223566547       19.9888319880  MEMB      56              0.0000000000
      7416        62  POPC      H14B          -14.3936758376       31.4745725454       21.6210567301  MEMB      56              0.0000000000
      7417        62  POPC      H14C          -15.5030693872       30.4310141255       20.7365861910  MEMB      56              0.0000000000
      7418        62  POPC      C15           -16.4695936455       33.0026620638       21.4281854115  MEMB      56              0.0000000000
      7419        62  POPC      H15A          -17.1266672500       32.2438759720       21.8268057816  MEMB      56              0.0000000000
      7420        62  POPC      H15B          -17.0466772678       33.8122886012       21.0064277073  MEMB      56              0.0000000000
      7421        62  POPC      H15C          -15.8131570063       33.1650243133       22.2702834824  MEMB      56              0.0000000000
      7422        62  POPC      C11           -13.8233195156       33.4953464945       18.5556367355  MEMB      56              0.0000000000
      7423        62  POPC      H11A          -13.2569325042       34.4332210712       18.3714683364  MEMB      56              0.0000000000
      7424        62  POPC      H11B          -14.4676814414       33.3748353903       17.6586440493  MEMB      56              0.0000000000
      7425        62  POPC      P             -12.8046962289       31.1657598782       17.7999337054  MEMB      56              0.0000000000
      7426        62  POPC      O13           -14.1908511684       30.7935223104       17.3460238956  MEMB      56              0.0000000000
      7427        62  POPC      O14           -12.0994387605       30.1018975566       18.5016585479  MEMB      56              0.0000000000
      7428        62  POPC      O12           -12.8426883006       32.4100094029       18.7504730100  MEMB      56              0.0000000000
      7429        62  POPC      O11           -11.9229146353       31.7737368924       16.6473479015  MEMB      56              0.0000000000
      7430        62  POPC      C1            -10.6001755025       32.2140644275       16.9245778887  MEMB      56              0.0000000000
      7431        62  POPC      HA            -10.0774113011       31.3736074579       17.4292268937  MEMB      56              0.0000000000
      7432        62  POPC      HB            -10.6419498394       33.1157907439       17.5722394912  MEMB      56              0.0000000000
      7433        62  POPC      C2             -9.9064399001       32.6426950510       15.6051669993  MEMB      56              0.0000000000
      7434        62  POPC      HS             -8.9619699882       33.1853405178       15.8238750770  MEMB      56              0.0000000000
      7435        62  POPC      O21           -10.7078466194       33.4574558033       14.7660019288  MEMB      56              0.0000000000
      7436        62  POPC      C21           -11.2796474341       34.5820829596       15.2395179122  MEMB      56              0.0000000000
      7437        62  POPC      O22           -11.1671869896       35.0568980368       16.3528201682  MEMB      56              0.0000000000
      7438        62  POPC      C22           -12.0631951194       35.1924879424       14.1252727611  MEMB      56              0.0000000000
      7439        62  POPC      H2R           -11.7928642781       36.2256670682       13.8190324422  MEMB      56              0.0000000000
      7440        62  POPC      H2S           -13.0808232349       35.2590874391       14.5660884891  MEMB      56              0.0000000000
      7441        62  POPC      C3             -9.3973001466       31.4430305084       14.7389933833  MEMB      56              0.0000000000
      7442        62  POPC      HX             -8.6619045192       30.8586516335       15.3323023880  MEMB      56              0.0000000000
      7443        62  POPC      HY             -8.8808924514       31.8945928890       13.8650739828  MEMB      56              0.0000000000
      7444        62  POPC      O31           -10.5122680293       30.6361278982       14.4260685810  MEMB      56              0.0000000000
      7445        62  POPC      C31           -11.0212809640       30.6712984591       13.1855158557  MEMB      56              0.0000000000
      7446        62  POPC      O32           -10.5203567668       31.2469552731       12.2728598980  MEMB      56              0.0000000000
      7447        62  POPC      C32           -12.3778553671       29.9279669093       13.1473259652  MEMB      56              0.0000000000
      7448        62  POPC      H2X           -13.2051648776       30.6109502894       13.4361402327  MEMB      56              0.0000000000
      7449        62  POPC      H2Y           -12.2329506403       29.0894892663       13.8616640456  MEMB      56              0.0000000000
      7450        62  POPC      C23           -11.9508166533       34.5251588544       12.6113508782  MEMB      56              0.0000000000
      7451        62  POPC      H3R           -12.1271887098       33.4285523226       12.6371985819  MEMB      56              0.0000000000
      7452        62  POPC      H3S           -10.8941983957       34.7557714417       12.3569955481  MEMB      56              0.0000000000
      7453        62  POPC      C24           -12.8779420955       35.1651987101       11.5351003407  MEMB      56              0.0000000000
      7454        62  POPC      H4R           -12.6447131936       36.2478939847       11.4473715864  MEMB      56              0.0000000000
      7455        62  POPC      H4S           -13.9290972776       34.9412197223       11.8165736519  MEMB      56              0.0000000000
      7456        62  POPC      C25           -12.7426243086       34.5247313956       10.1361197357  MEMB      56              0.0000000000
      7457        62  POPC      H5R           -13.0286625622       33.4513891188       10.1151499611  MEMB      56              0.0000000000
      7458        62  POPC      H5S           -11.6855786006       34.6732610392        9.8280376339  MEMB      56              0.0000000000
      7459        62  POPC      C26           -13.6682412535       35.3749055901        9.1907519687  MEMB      56              0.0000000000
      7460        62  POPC      H6R           -13.2967254808       36.4217546943        9.1706404940  MEMB      56              0.0000000000
      7461        62  POPC      H6S           -14.6790567661       35.3906526908        9.6515386604  MEMB      56              0.0000000000
      7462        62  POPC      C27           -13.8154971701       34.7122378624        7.8597886631  MEMB      56              0.0000000000
      7463        62  POPC      H7R           -14.0313347652       33.6244693376        7.9268301981  MEMB      56              0.0000000000
      7464        62  POPC      H7S           -12.8266429667       34.7863287881        7.3587911241  MEMB      56              0.0000000000
      7465        62  POPC      C28           -14.7669654675       35.4950475769        6.9538863964  MEMB      56              0.0000000000
      7466        62  POPC      H8R           -14.4383586592       36.5551386416        6.9034371309  MEMB      56              0.0000000000
      7467        62  POPC      H8S           -15.7477593588       35.4689067933        7.4751157392  MEMB      56              0.0000000000
      7468        62  POPC      C29           -14.8376434226       35.0164715142        5.5307451943  MEMB      56              0.0000000000
      7469        62  POPC      H91           -15.6397599589       34.2963708514        5.3115099214  MEMB      56              0.0000000000
      7470        62  POPC      C210          -13.9841805552       35.2712618999        4.4847201435  MEMB      56              0.0000000000
      7471        62  POPC      H101          -14.2786728814       34.7590872133        3.5568455969  MEMB      56              0.0000000000
      7472        62  POPC      C211          -12.7860745664       36.1553402301        4.5410818937  MEMB      56              0.0000000000
      7473        62  POPC      H11R          -12.8292073910       36.7346015108        5.4881384887  MEMB      56              0.0000000000
      7474        62  POPC      H11S          -12.8836960495       36.8211669651        3.6570760354  MEMB      56              0.0000000000
      7475        62  POPC      C212          -11.4925683894       35.4564525598        4.3898787435  MEMB      56              0.0000000000
      7476        62  POPC      H12R          -11.4093899060       34.6450395568        5.1442072992  MEMB      56              0.0000000000
      7477        62  POPC      H12S          -10.7233977623       36.2450005987        4.5344106185  MEMB      56              0.0000000000
      7478        62  POPC      C213          -11.3553902936       34.7039273534        2.9995712640  MEMB      56              0.0000000000
      7479        62  POPC      H13R          -12.3227007048       34.2876466477        2.6455337781  MEMB      56              0.0000000000
      7480        62  POPC      H13S          -10.6166421861       33.8790779575        3.0901018523  MEMB      56              0.0000000000
      7481        62  POPC      C214          -10.7472106889       35.6428739096        1.9233851309  MEMB      56              0.0000000000
      7482        62  POPC      H14R           -9.6934146982       35.7881391229        2.2439038165  MEMB      56              0.0000000000
      7483        62  POPC      H14S          -11.2812332202       36.6161614661        1.9664197034  MEMB      56              0.0000000000
      7484        62  POPC      C215          -10.6494314346       35.0843112661        0.5012921809  MEMB      56              0.0000000000
      7485        62  POPC      H15R          -10.1301288717       34.1038487872        0.4435097998  MEMB      56              0.0000000000
      7486        62  POPC      H15S          -10.0677957128       35.8591758991       -0.0424050573  MEMB      56              0.0000000000
      7487        62  POPC      C216          -12.0269006404       34.8669846470       -0.1653285040  MEMB      56              0.0000000000
      7488        62  POPC      H16R          -12.5339922066       33.9041522527        0.0585761721  MEMB      56              0.0000000000
      7489        62  POPC      H16S          -11.8597741956       34.9687555277       -1.2589607746  MEMB      56              0.0000000000
      7490        62  POPC      C217          -12.8360750421       36.1253699455        0.0747865628  MEMB      56              0.0000000000
      7491        62  POPC      H17R          -12.2797065428       37.0325173859       -0.2443660132  MEMB      56              0.0000000000
      7492        62  POPC      H17S          -13.2077255048       36.2429293420        1.1151601329  MEMB      56              0.0000000000
      7493        62  POPC      C218          -14.1149789527       36.2147350558       -0.7724789976  MEMB      56              0.0000000000
      7494        62  POPC      H18R          -14.7075716974       37.0218560126       -0.2911150173  MEMB      56              0.0000000000
      7495        62  POPC      H18S          -14.6685860240       35.2522867403       -0.7333213599  MEMB      56              0.0000000000
      7496        62  POPC      H18T          -13.8290706253       36.4422295023       -1.8216795230  MEMB      56              0.0000000000
      7497        62  POPC      C33           -12.7746618917       29.3042406629       11.7812012798  MEMB      56              0.0000000000
      7498        62  POPC      H3X           -13.4788935747       28.4973245288       12.0766080636  MEMB      56              0.0000000000
      7499        62  POPC      H3Y           -11.8622511160       28.8331425801       11.3570618676  MEMB      56              0.0000000000
      7500        62  POPC      C34           -13.4799537853       30.3858850332       10.9561049803  MEMB      56              0.0000000000
      7501        62  POPC      H4X           -12.8342590576       31.2882048592       11.0128336291  MEMB      56              0.0000000000
      7502        62  POPC      H4Y           -14.4298102867       30.7009332924       11.4386379108  MEMB      56              0.0000000000
      7503        62  POPC      C35           -13.5651506645       29.9259148174        9.4676280790  MEMB      56              0.0000000000
      7504        62  POPC      H5X           -14.4795132716       29.3065754415        9.3464634432  MEMB      56              0.0000000000
      7505        62  POPC      H5Y           -12.7263165011       29.2059113377        9.3568427474  MEMB      56              0.0000000000
      7506        62  POPC      C36           -13.3950872266       30.9288818404        8.3426489069  MEMB      56              0.0000000000
      7507        62  POPC      H6X           -12.6132930547       31.6616005572        8.6363188695  MEMB      56              0.0000000000
      7508        62  POPC      H6Y           -14.3800503947       31.4417611384        8.3091324247  MEMB      56              0.0000000000
      7509        62  POPC      C37           -13.0127401879       30.3902662345        6.9681842882  MEMB      56              0.0000000000
      7510        62  POPC      H7X           -13.7321994046       29.6074867205        6.6457634897  MEMB      56              0.0000000000
      7511        62  POPC      H7Y           -11.9967206253       29.9594068198        7.0961900530  MEMB      56              0.0000000000
      7512        62  POPC      C38           -13.1276311490       31.5036564253        5.8770795653  MEMB      56              0.0000000000
      7513        62  POPC      H8X           -12.2997850709       32.2270428596        6.0374037829  MEMB      56              0.0000000000
      7514        62  POPC      H8Y           -14.1245086143       31.9939059525        5.8625321857  MEMB      56              0.0000000000
      7515        62  POPC      C39           -12.9465432748       30.8469125904        4.5279720623  MEMB      56              0.0000000000
      7516        62  POPC      H9X           -13.2175285024       29.7729048041        4.6139688609  MEMB      56              0.0000000000
      7517        62  POPC      H9Y           -11.8657111325       30.8571591160        4.2710324563  MEMB      56              0.0000000000
      7518        62  POPC      C310          -13.8198916347       31.4546543787        3.4671147031  MEMB      56              0.0000000000
      7519        62  POPC      H10X          -13.6216442928       32.5418095191        3.3526045706  MEMB      56              0.0000000000
      7520        62  POPC      H10Y          -14.8955581465       31.4294183643        3.7439283586  MEMB      56              0.0000000000
      7521        62  POPC      C311          -13.5930775760       30.8432975265        2.0604139849  MEMB      56              0.0000000000
      7522        62  POPC      H11X          -13.8901576476       31.5816675995        1.2852526021  MEMB      56              0.0000000000
      7523        62  POPC      H11Y          -14.2681861889       29.9638259196        1.9891467574  MEMB      56              0.0000000000
      7524        62  POPC      C312          -12.1684820913       30.3540629301        1.7472826678  MEMB      56              0.0000000000
      7525        62  POPC      H12X          -11.9886206294       29.4785645065        2.4071872285  MEMB      56              0.0000000000
      7526        62  POPC      H12Y          -11.4083785887       31.1544943821        1.8732716187  MEMB      56              0.0000000000
      7527        62  POPC      C313          -11.8950465442       29.7467750453        0.3174036009  MEMB      56              0.0000000000
      7528        62  POPC      H13X          -12.4086317745       28.7619458314        0.2916605541  MEMB      56              0.0000000000
      7529        62  POPC      H13Y          -10.8007250489       29.6050504771        0.1881912942  MEMB      56              0.0000000000
      7530        62  POPC      C314          -12.3466858096       30.5450965381       -0.8976173518  MEMB      56              0.0000000000
      7531        62  POPC      H14X          -11.9355436387       31.5681839654       -0.7613258424  MEMB      56              0.0000000000
      7532        62  POPC      H14Y          -13.4562273442       30.5121952148       -0.9440505623  MEMB      56              0.0000000000
      7533        62  POPC      C315          -11.7736695294       30.0330470783       -2.2054615868  MEMB      56              0.0000000000
      7534        62  POPC      H15X          -10.7683202521       29.6456518797       -1.9343174504  MEMB      56              0.0000000000
      7535        62  POPC      H15Y          -11.6319764062       30.7421781170       -3.0488936524  MEMB      56              0.0000000000
      7536        62  POPC      C316          -12.4681559314       28.7779901920       -2.8238632374  MEMB      56              0.0000000000
      7537        62  POPC      H16X          -13.4911117265       28.9636273725       -3.2155540656  MEMB      56              0.0000000000
      7538        62  POPC      H16Y          -12.6959185308       27.9788387482       -2.0864343828  MEMB      56              0.0000000000
      7539        62  POPC      H16Z          -11.7369859812       28.4498123506       -3.5932855753  MEMB      56              0.0000000000
      7540        63  POPC      N             -33.3330604490       15.5882265250       19.3273689738  MEMB      57              0.0000000000
      7541        63  POPC      C12           -33.6111402963       14.3663830873       18.4223106808  MEMB      57              0.0000000000
      7542        63  POPC      H12A          -33.0735820795       14.5699656522       17.5079884236  MEMB      57              0.0000000000
      7543        63  POPC      H12B          -34.6862555771       14.3958225477       18.3240235929  MEMB      57              0.0000000000
      7544        63  POPC      C13           -31.8543507655       15.7462287447       19.6020121319  MEMB      57              0.0000000000
      7545        63  POPC      H13A          -31.3362403319       15.9690896309       18.6809829717  MEMB      57              0.0000000000
      7546        63  POPC      H13B          -31.6471418606       16.5285763694       20.3171322448  MEMB      57              0.0000000000
      7547        63  POPC      H13C          -31.5376906635       14.8369640302       20.0912606167  MEMB      57              0.0000000000
      7548        63  POPC      C14           -33.7887729743       16.8298607046       18.6963085684  MEMB      57              0.0000000000
      7549        63  POPC      H14A          -33.4119228847       17.6290886064       19.3172905248  MEMB      57              0.0000000000
      7550        63  POPC      H14B          -33.3401684986       16.9810815590       17.7255942421  MEMB      57              0.0000000000
      7551        63  POPC      H14C          -34.8488520650       16.9716643401       18.5462284215  MEMB      57              0.0000000000
      7552        63  POPC      C15           -34.1028803263       15.4073267879       20.5910307586  MEMB      57              0.0000000000
      7553        63  POPC      H15A          -35.1226682405       15.5819785599       20.2813061902  MEMB      57              0.0000000000
      7554        63  POPC      H15B          -33.7580829685       16.2108216686       21.2249950885  MEMB      57              0.0000000000
      7555        63  POPC      H15C          -33.9595185244       14.4360477782       21.0409911795  MEMB      57              0.0000000000
      7556        63  POPC      C11           -33.3872397296       12.8973229596       19.0356699801  MEMB      57              0.0000000000
      7557        63  POPC      H11A          -33.6484978233       12.2777627824       18.1512434023  MEMB      57              0.0000000000
      7558        63  POPC      H11B          -34.1180325658       12.8323126752       19.8699579580  MEMB      57              0.0000000000
      7559        63  POPC      P             -30.9667114563       11.9303171573       18.7063751919  MEMB      57              0.0000000000
      7560        63  POPC      O13           -31.3814929863       10.5082263357       18.6715282367  MEMB      57              0.0000000000
      7561        63  POPC      O14           -29.6123518331       12.3200485368       19.1619840234  MEMB      57              0.0000000000
      7562        63  POPC      O12           -32.1009287548       12.6055311754       19.5756827068  MEMB      57              0.0000000000
      7563        63  POPC      O11           -31.1904954331       12.4866844850       17.2097287500  MEMB      57              0.0000000000
      7564        63  POPC      C1            -30.1382864330       13.2302428295       16.6484220775  MEMB      57              0.0000000000
      7565        63  POPC      HA            -29.1877270814       12.6894872696       16.8442314725  MEMB      57              0.0000000000
      7566        63  POPC      HB            -30.0204095569       14.1654633776       17.2364601257  MEMB      57              0.0000000000
      7567        63  POPC      C2            -30.3371888364       13.4788216900       15.0959516970  MEMB      57              0.0000000000
      7568        63  POPC      HS            -29.5509557003       14.1943679030       14.7732255024  MEMB      57              0.0000000000
      7569        63  POPC      O21           -31.6267314476       14.0419222641       14.9051345367  MEMB      57              0.0000000000
      7570        63  POPC      C21           -31.9076572650       15.2330376950       15.5241302494  MEMB      57              0.0000000000
      7571        63  POPC      O22           -31.1406955223       15.9631163896       16.1045042894  MEMB      57              0.0000000000
      7572        63  POPC      C22           -33.3576635219       15.5186863350       15.1862854359  MEMB      57              0.0000000000
      7573        63  POPC      H2R           -33.7701098527       16.2928644647       15.8680899395  MEMB      57              0.0000000000
      7574        63  POPC      H2S           -33.9589557236       14.6308051341       15.4768635200  MEMB      57              0.0000000000
      7575        63  POPC      C3            -30.2895406879       12.1176162258       14.3649111922  MEMB      57              0.0000000000
      7576        63  POPC      HX            -30.6446672474       11.2917864220       15.0177597148  MEMB      57              0.0000000000
      7577        63  POPC      HY            -29.2449264338       11.8331599094       14.1155393783  MEMB      57              0.0000000000
      7578        63  POPC      O31           -31.0410754562       12.2752249783       13.1312820829  MEMB      57              0.0000000000
      7579        63  POPC      C31           -30.3909765962       11.9636094337       12.0422889621  MEMB      57              0.0000000000
      7580        63  POPC      O32           -29.1687503447       11.8578194735       11.8272464847  MEMB      57              0.0000000000
      7581        63  POPC      C32           -31.4916537511       11.9536903037       10.9342585960  MEMB      57              0.0000000000
      7582        63  POPC      H2X           -31.9341476268       12.9725973750       10.9529309855  MEMB      57              0.0000000000
      7583        63  POPC      H2Y           -32.2834145406       11.2291490961       11.2214445413  MEMB      57              0.0000000000
      7584        63  POPC      C23           -33.5457109279       16.0178304369       13.7556726999  MEMB      57              0.0000000000
      7585        63  POPC      H3R           -33.6821695861       15.1152446331       13.1223965269  MEMB      57              0.0000000000
      7586        63  POPC      H3S           -32.6659206234       16.4757054155       13.2550327994  MEMB      57              0.0000000000
      7587        63  POPC      C24           -34.7332469992       17.0495908746       13.6457115656  MEMB      57              0.0000000000
      7588        63  POPC      H4R           -34.1845722608       17.9613632228       13.9650049447  MEMB      57              0.0000000000
      7589        63  POPC      H4S           -35.4986661268       16.8898198729       14.4349693458  MEMB      57              0.0000000000
      7590        63  POPC      C25           -35.3896797110       17.1370046106       12.3047693560  MEMB      57              0.0000000000
      7591        63  POPC      H5R           -36.1768263064       17.8988547825       12.4899853995  MEMB      57              0.0000000000
      7592        63  POPC      H5S           -35.8791906495       16.1694082243       12.0629900583  MEMB      57              0.0000000000
      7593        63  POPC      C26           -34.4542467691       17.5347013071       11.1596295653  MEMB      57              0.0000000000
      7594        63  POPC      H6R           -33.8502148383       18.4125290480       11.4740895556  MEMB      57              0.0000000000
      7595        63  POPC      H6S           -35.2395946885       17.8712385658       10.4494947251  MEMB      57              0.0000000000
      7596        63  POPC      C27           -33.6479639311       16.3891319153       10.4611550127  MEMB      57              0.0000000000
      7597        63  POPC      H7R           -34.2426164425       15.5037216061       10.1500955016  MEMB      57              0.0000000000
      7598        63  POPC      H7S           -32.9001472600       16.0107379594       11.1904763092  MEMB      57              0.0000000000
      7599        63  POPC      C28           -32.9494404397       16.8422470662        9.1159564925  MEMB      57              0.0000000000
      7600        63  POPC      H8R           -33.7398371654       17.3361534766        8.5112656018  MEMB      57              0.0000000000
      7601        63  POPC      H8S           -32.6497915120       15.9178085690        8.5774912622  MEMB      57              0.0000000000
      7602        63  POPC      C29           -31.8382880047       17.8654085271        9.2728507758  MEMB      57              0.0000000000
      7603        63  POPC      H91           -32.1784698911       18.7643095508        9.8078771795  MEMB      57              0.0000000000
      7604        63  POPC      C210          -30.5348485725       17.7404198884        8.8334632969  MEMB      57              0.0000000000
      7605        63  POPC      H101          -29.8444734805       18.5471849851        9.1207141982  MEMB      57              0.0000000000
      7606        63  POPC      C211          -29.9623707589       16.5809549179        8.0855530665  MEMB      57              0.0000000000
      7607        63  POPC      H11R          -30.4671998052       15.6288364956        8.3556256630  MEMB      57              0.0000000000
      7608        63  POPC      H11S          -28.9344627056       16.3296012712        8.4240006582  MEMB      57              0.0000000000
      7609        63  POPC      C212          -29.9912464475       16.7755734025        6.5475412356  MEMB      57              0.0000000000
      7610        63  POPC      H12R          -29.3509305504       17.6820308542        6.4960474738  MEMB      57              0.0000000000
      7611        63  POPC      H12S          -30.9670384983       17.1474443789        6.1682485090  MEMB      57              0.0000000000
      7612        63  POPC      C213          -29.5281886690       15.6953142162        5.6138284560  MEMB      57              0.0000000000
      7613        63  POPC      H13R          -28.6551353003       15.2361714044        6.1249903155  MEMB      57              0.0000000000
      7614        63  POPC      H13S          -29.1194879223       16.1563212108        4.6892975660  MEMB      57              0.0000000000
      7615        63  POPC      C214          -30.5410709874       14.5685778882        5.3369066032  MEMB      57              0.0000000000
      7616        63  POPC      H14R          -30.8458445724       14.1149632225        6.3042056997  MEMB      57              0.0000000000
      7617        63  POPC      H14S          -30.0692404455       13.7656071061        4.7311550953  MEMB      57              0.0000000000
      7618        63  POPC      C215          -31.8577562119       15.0313214707        4.6938331372  MEMB      57              0.0000000000
      7619        63  POPC      H15R          -32.3732668909       15.7879296832        5.3232090447  MEMB      57              0.0000000000
      7620        63  POPC      H15S          -32.6506740281       14.2589551438        4.5986876457  MEMB      57              0.0000000000
      7621        63  POPC      C216          -31.6235486528       15.6466064169        3.3290142890  MEMB      57              0.0000000000
      7622        63  POPC      H16R          -30.9093425496       15.0210062217        2.7520779443  MEMB      57              0.0000000000
      7623        63  POPC      H16S          -31.0352389631       16.5876463779        3.3805547067  MEMB      57              0.0000000000
      7624        63  POPC      C217          -32.8630603150       15.8566863056        2.4878396465  MEMB      57              0.0000000000
      7625        63  POPC      H17R          -33.5860073807       15.0359486642        2.6829253011  MEMB      57              0.0000000000
      7626        63  POPC      H17S          -32.6234869915       15.7434740689        1.4089008672  MEMB      57              0.0000000000
      7627        63  POPC      C218          -33.6508994773       17.1968326725        2.7430707196  MEMB      57              0.0000000000
      7628        63  POPC      H18R          -32.9481384414       18.0467547611        2.8775335842  MEMB      57              0.0000000000
      7629        63  POPC      H18S          -34.2522141483       17.1852650440        3.6772060720  MEMB      57              0.0000000000
      7630        63  POPC      H18T          -34.2866938378       17.4242328629        1.8608152540  MEMB      57              0.0000000000
      7631        63  POPC      C33           -30.9740361905       11.6682682920        9.4992357857  MEMB      57              0.0000000000
      7632        63  POPC      H3X           -30.2544240964       10.8218817919        9.5097188643  MEMB      57              0.0000000000
      7633        63  POPC      H3Y           -30.5387701234       12.5921696492        9.0618903909  MEMB      57              0.0000000000
      7634        63  POPC      C34           -32.0962899829       11.3756029689        8.4658334698  MEMB      57              0.0000000000
      7635        63  POPC      H4X           -31.6392249624       11.4021972111        7.4535554053  MEMB      57              0.0000000000
      7636        63  POPC      H4Y           -32.7086870371       12.3017573011        8.4267271381  MEMB      57              0.0000000000
      7637        63  POPC      C35           -32.8281291150       10.0276665658        8.4987168673  MEMB      57              0.0000000000
      7638        63  POPC      H5X           -32.9110965312        9.4988166226        9.4722442670  MEMB      57              0.0000000000
      7639        63  POPC      H5Y           -32.2276786811        9.3797442581        7.8249385327  MEMB      57              0.0000000000
      7640        63  POPC      C36           -34.2604170899       10.0372640739        7.9939333042  MEMB      57              0.0000000000
      7641        63  POPC      H6X           -34.9399172010       10.3788091451        8.8038391840  MEMB      57              0.0000000000
      7642        63  POPC      H6Y           -34.6506883730        9.0224940466        7.7653476119  MEMB      57              0.0000000000
      7643        63  POPC      C37           -34.6144463243       10.7130047341        6.6001694373  MEMB      57              0.0000000000
      7644        63  POPC      H7X           -34.4494654928       11.8015906907        6.7487737698  MEMB      57              0.0000000000
      7645        63  POPC      H7Y           -35.6815406471       10.5477339289        6.3387967957  MEMB      57              0.0000000000
      7646        63  POPC      C38           -33.7924228412       10.1440676003        5.4293211304  MEMB      57              0.0000000000
      7647        63  POPC      H8X           -33.9308383399        9.0578788420        5.2412890928  MEMB      57              0.0000000000
      7648        63  POPC      H8Y           -32.7322108029       10.2728649121        5.7353968842  MEMB      57              0.0000000000
      7649        63  POPC      C39           -34.1584271269       10.8652509442        4.1373244669  MEMB      57              0.0000000000
      7650        63  POPC      H9X           -33.8073532193       11.9157740827        4.2237469517  MEMB      57              0.0000000000
      7651        63  POPC      H9Y           -35.2593076720       10.9193334751        3.9978335937  MEMB      57              0.0000000000
      7652        63  POPC      C310          -33.4592476407       10.1701753504        2.9613754705  MEMB      57              0.0000000000
      7653        63  POPC      H10X          -34.1987514900        9.3804946052        2.7086706480  MEMB      57              0.0000000000
      7654        63  POPC      H10Y          -32.6245058076        9.5963173267        3.4176806710  MEMB      57              0.0000000000
      7655        63  POPC      C311          -33.0347806918       11.0823411903        1.8595699822  MEMB      57              0.0000000000
      7656        63  POPC      H11X          -32.4350241820       11.9340823236        2.2457687684  MEMB      57              0.0000000000
      7657        63  POPC      H11Y          -33.9426008987       11.3659671563        1.2853391644  MEMB      57              0.0000000000
      7658        63  POPC      C312          -32.1710760635       10.3200144960        0.9180708123  MEMB      57              0.0000000000
      7659        63  POPC      H12X          -32.7662289212        9.8251328702        0.1210720585  MEMB      57              0.0000000000
      7660        63  POPC      H12Y          -31.6487684963        9.5072631291        1.4666606021  MEMB      57              0.0000000000
      7661        63  POPC      C313          -31.1091378525       11.1373368928        0.1658984650  MEMB      57              0.0000000000
      7662        63  POPC      H13X          -30.6018232624       10.4836595685       -0.5754914130  MEMB      57              0.0000000000
      7663        63  POPC      H13Y          -30.2441679031       11.5048325479        0.7584299271  MEMB      57              0.0000000000
      7664        63  POPC      C314          -31.7125940170       12.3416991345       -0.5467414999  MEMB      57              0.0000000000
      7665        63  POPC      H14X          -31.9895517180       13.1248055667        0.1910663783  MEMB      57              0.0000000000
      7666        63  POPC      H14Y          -32.6132935003       12.0690542157       -1.1372726560  MEMB      57              0.0000000000
      7667        63  POPC      C315          -30.7955396044       13.1231424310       -1.5561620319  MEMB      57              0.0000000000
      7668        63  POPC      H15X          -31.5582061358       13.8702771116       -1.8634893453  MEMB      57              0.0000000000
      7669        63  POPC      H15Y          -30.6052825427       12.3532383247       -2.3342173553  MEMB      57              0.0000000000
      7670        63  POPC      C316          -29.5170367452       13.6763019603       -1.0071254304  MEMB      57              0.0000000000
      7671        63  POPC      H16X          -29.6728649270       14.1679213240       -0.0230786155  MEMB      57              0.0000000000
      7672        63  POPC      H16Y          -29.2026372858       14.4718834340       -1.7160151471  MEMB      57              0.0000000000
      7673        63  POPC      H16Z          -28.6078662646       13.0441761521       -1.0973867202  MEMB      57              0.0000000000
      7674        64  POPS      N              30.4196032841      -24.8655249813       17.5677367105  MEMB      58              0.0000000000
      7675        64  POPS      HN1            30.0882614627      -25.2687846564       16.6681844835  MEMB      58              0.0000000000
      7676        64  POPS      HN2            31.1561805219      -24.1381130399       17.4681075737  MEMB      58              0.0000000000
      7677        64  POPS      HN3            30.8328942301      -25.6242754291       18.1466048017  MEMB      58              0.0000000000
      7678        64  POPS      C12            29.3133014250      -24.3323272439       18.4022674799  MEMB      58              0.0000000000
      7679        64  POPS      H12A           28.9679215289      -23.3334683174       18.1800209752  MEMB      58              0.0000000000
      7680        64  POPS      C13            29.5270936829      -24.4993667973       19.9185600450  MEMB      58              0.0000000000
      7681        64  POPS      O13A           30.6110311386      -24.9879780912       20.2867489606  MEMB      58              0.0000000000
      7682        64  POPS      O13B           28.7101682146      -23.9899433394       20.7448220615  MEMB      58              0.0000000000
      7683        64  POPS      C11            28.0310103635      -25.2070917013       18.1378444229  MEMB      58              0.0000000000
      7684        64  POPS      H11A           28.1573434943      -26.2589230130       18.4725261578  MEMB      58              0.0000000000
      7685        64  POPS      H11B           27.9532603358      -25.2853840339       17.0323372578  MEMB      58              0.0000000000
      7686        64  POPS      P              25.5153791378      -25.4675464781       18.8370337859  MEMB      58              0.0000000000
      7687        64  POPS      O13            24.3950655085      -24.6200167693       18.4951671064  MEMB      58              0.0000000000
      7688        64  POPS      O14            25.5411107409      -26.0513126197       20.1430723214  MEMB      58              0.0000000000
      7689        64  POPS      O12            26.7949549121      -24.7489284292       18.6009295368  MEMB      58              0.0000000000
      7690        64  POPS      O11            25.5674828121      -26.6707148486       17.8658175632  MEMB      58              0.0000000000
      7691        64  POPS      C1             24.9097320685      -26.7000697427       16.5537947128  MEMB      58              0.0000000000
      7692        64  POPS      HA             23.9205785265      -26.1951752507       16.5225225194  MEMB      58              0.0000000000
      7693        64  POPS      HB             24.6213799498      -27.7559260269       16.3631606302  MEMB      58              0.0000000000
      7694        64  POPS      C2             25.7359163500      -26.2663125237       15.2412098532  MEMB      58              0.0000000000
      7695        64  POPS      HS             25.3033610367      -26.6752809554       14.3031472865  MEMB      58              0.0000000000
      7696        64  POPS      O21            27.1070255524      -26.6304414315       15.3559965504  MEMB      58              0.0000000000
      7697        64  POPS      C21            27.5430889882      -27.6439115861       14.6613136422  MEMB      58              0.0000000000
      7698        64  POPS      O22            26.8936764473      -28.3828233821       13.9776142139  MEMB      58              0.0000000000
      7699        64  POPS      C22            28.9173644786      -27.8033201568       15.1448693678  MEMB      58              0.0000000000
      7700        64  POPS      H2R            28.8975670967      -28.6896799010       15.8144177523  MEMB      58              0.0000000000
      7701        64  POPS      H2S            29.3660618992      -26.9354268435       15.6737858071  MEMB      58              0.0000000000
      7702        64  POPS      C3             25.7604486115      -24.7094567364       15.0365547085  MEMB      58              0.0000000000
      7703        64  POPS      HX             26.0956781132      -24.2661362725       15.9985366890  MEMB      58              0.0000000000
      7704        64  POPS      HY             24.7191481517      -24.3426775507       14.9121060780  MEMB      58              0.0000000000
      7705        64  POPS      O31            26.4344729143      -24.3692310298       13.7694112749  MEMB      58              0.0000000000
      7706        64  POPS      C31            27.4897268288      -23.5503372138       13.9332702790  MEMB      58              0.0000000000
      7707        64  POPS      O32            27.9061936170      -23.1344522277       15.0159873863  MEMB      58              0.0000000000
      7708        64  POPS      C32            28.2173525086      -23.2007901401       12.6227865230  MEMB      58              0.0000000000
      7709        64  POPS      H2X            27.7669235780      -23.6897999237       11.7326716038  MEMB      58              0.0000000000
      7710        64  POPS      H2Y            29.2675445522      -23.5589965556       12.6785172572  MEMB      58              0.0000000000
      7711        64  POPS      C23            29.8428544595      -28.0386531927       14.0199299660  MEMB      58              0.0000000000
      7712        64  POPS      H3R            29.4553252326      -28.8447542544       13.3608826530  MEMB      58              0.0000000000
      7713        64  POPS      H3S            30.7974679601      -28.3843630998       14.4710609457  MEMB      58              0.0000000000
      7714        64  POPS      C24            30.2474808629      -26.7955587136       13.1958009022  MEMB      58              0.0000000000
      7715        64  POPS      H4R            30.6618025152      -25.9859193712       13.8338782170  MEMB      58              0.0000000000
      7716        64  POPS      H4S            29.3736763719      -26.3311697184       12.6906973490  MEMB      58              0.0000000000
      7717        64  POPS      C25            31.0294590289      -27.2613119693       11.9972140327  MEMB      58              0.0000000000
      7718        64  POPS      H5R            30.3118057317      -27.9084955228       11.4490819897  MEMB      58              0.0000000000
      7719        64  POPS      H5S            31.8869571429      -27.8994431678       12.3002101959  MEMB      58              0.0000000000
      7720        64  POPS      C26            31.6128672056      -26.0952590544       11.1059272194  MEMB      58              0.0000000000
      7721        64  POPS      H6R            32.3745373643      -26.5999465586       10.4738908420  MEMB      58              0.0000000000
      7722        64  POPS      H6S            32.1672086359      -25.4014918513       11.7735455122  MEMB      58              0.0000000000
      7723        64  POPS      C27            30.7213400560      -25.2539788020       10.0999606575  MEMB      58              0.0000000000
      7724        64  POPS      H7R            31.3402584490      -24.4240735888        9.6968243275  MEMB      58              0.0000000000
      7725        64  POPS      H7S            29.8713172609      -24.7234425377       10.5798698791  MEMB      58              0.0000000000
      7726        64  POPS      C28            30.2455721044      -26.1299001567        8.9430045323  MEMB      58              0.0000000000
      7727        64  POPS      H8R            29.4926716907      -25.4783988842        8.4500463813  MEMB      58              0.0000000000
      7728        64  POPS      H8S            29.6774394777      -27.0006886392        9.3345072433  MEMB      58              0.0000000000
      7729        64  POPS      C29            31.2703659936      -26.6035646565        7.9225367137  MEMB      58              0.0000000000
      7730        64  POPS      H91            32.2963242474      -26.5828470694        8.3187448626  MEMB      58              0.0000000000
      7731        64  POPS      C210           31.0901379991      -26.9496278675        6.6582834408  MEMB      58              0.0000000000
      7732        64  POPS      H101           31.8815026069      -27.1785845215        5.9293653107  MEMB      58              0.0000000000
      7733        64  POPS      C211           29.7401463871      -26.8913221047        5.9789037323  MEMB      58              0.0000000000
      7734        64  POPS      H11R           29.0055474610      -26.8760875469        6.8122425710  MEMB      58              0.0000000000
      7735        64  POPS      H11S           29.5491312258      -27.8281130563        5.4129919008  MEMB      58              0.0000000000
      7736        64  POPS      C212           29.4610006494      -25.6564958238        5.1089866616  MEMB      58              0.0000000000
      7737        64  POPS      H12R           29.6234212030      -24.8561546783        5.8622420680  MEMB      58              0.0000000000
      7738        64  POPS      H12S           28.3502328230      -25.6407607492        5.1253612653  MEMB      58              0.0000000000
      7739        64  POPS      C213           29.9511523306      -25.8049503206        3.6727531267  MEMB      58              0.0000000000
      7740        64  POPS      H13R           29.6748479543      -26.6979376911        3.0722947420  MEMB      58              0.0000000000
      7741        64  POPS      H13S           31.0587739502      -25.7203847067        3.6542059467  MEMB      58              0.0000000000
      7742        64  POPS      C214           29.2922286887      -24.7234144887        2.7899381707  MEMB      58              0.0000000000
      7743        64  POPS      H14R           28.2069860799      -24.9463472392        2.7070479985  MEMB      58              0.0000000000
      7744        64  POPS      H14S           29.6602154959      -24.8420532865        1.7483857632  MEMB      58              0.0000000000
      7745        64  POPS      C215           29.6987631109      -23.2821338618        3.1758506460  MEMB      58              0.0000000000
      7746        64  POPS      H15R           30.8091965962      -23.2491797612        3.1889888273  MEMB      58              0.0000000000
      7747        64  POPS      H15S           29.3040314093      -23.0360645183        4.1847897416  MEMB      58              0.0000000000
      7748        64  POPS      C216           29.2756067548      -22.3948364417        2.0930281275  MEMB      58              0.0000000000
      7749        64  POPS      H16R           29.8457057965      -22.6245570170        1.1675348191  MEMB      58              0.0000000000
      7750        64  POPS      H16S           29.6391769110      -21.3777593484        2.3532026999  MEMB      58              0.0000000000
      7751        64  POPS      C217           27.8044790912      -22.2459071768        1.8470425980  MEMB      58              0.0000000000
      7752        64  POPS      H17R           27.3621178544      -23.0974830066        1.2871708113  MEMB      58              0.0000000000
      7753        64  POPS      H17S           27.6222853073      -21.2950581976        1.3020543506  MEMB      58              0.0000000000
      7754        64  POPS      C218           26.8918691925      -22.0361564023        3.1472440635  MEMB      58              0.0000000000
      7755        64  POPS      H18R           25.8899555840      -21.6538673564        2.8568207778  MEMB      58              0.0000000000
      7756        64  POPS      H18S           27.5169526325      -21.3372068757        3.7431133735  MEMB      58              0.0000000000
      7757        64  POPS      H18T           26.7253476158      -23.0114455963        3.6526178574  MEMB      58              0.0000000000
      7758        64  POPS      C33            28.2476865883      -21.7245983458       12.4829982975  MEMB      58              0.0000000000
      7759        64  POPS      H3X            28.8692275428      -21.2662349647       13.2816915988  MEMB      58              0.0000000000
      7760        64  POPS      H3Y            27.2318485966      -21.2808378313       12.4090303927  MEMB      58              0.0000000000
      7761        64  POPS      C34            29.0755702861      -21.1974425868       11.2788793012  MEMB      58              0.0000000000
      7762        64  POPS      H4X            30.1122566301      -21.5273891667       11.5041295627  MEMB      58              0.0000000000
      7763        64  POPS      H4Y            29.1965694459      -20.0932665207       11.3006699402  MEMB      58              0.0000000000
      7764        64  POPS      C35            28.7083472088      -21.6056193734        9.7942438419  MEMB      58              0.0000000000
      7765        64  POPS      H5X            28.3982759815      -22.6724458388        9.7865996589  MEMB      58              0.0000000000
      7766        64  POPS      H5Y            29.6705518934      -21.4119487089        9.2736923029  MEMB      58              0.0000000000
      7767        64  POPS      C36            27.5266249316      -20.7592627044        9.2141115662  MEMB      58              0.0000000000
      7768        64  POPS      H6X            27.6526133142      -19.7006934168        9.5269669544  MEMB      58              0.0000000000
      7769        64  POPS      H6Y            26.5733722170      -21.1146214676        9.6605984565  MEMB      58              0.0000000000
      7770        64  POPS      C37            27.4764712602      -20.8690228968        7.6706882317  MEMB      58              0.0000000000
      7771        64  POPS      H7X            28.5100076815      -20.6466169971        7.3291345040  MEMB      58              0.0000000000
      7772        64  POPS      H7Y            26.8264116951      -20.1152286892        7.1771922345  MEMB      58              0.0000000000
      7773        64  POPS      C38            26.9229577990      -22.2439520881        7.2745976651  MEMB      58              0.0000000000
      7774        64  POPS      H8X            27.4467326108      -23.0343586568        7.8535958104  MEMB      58              0.0000000000
      7775        64  POPS      H8Y            27.2836889791      -22.2578580896        6.2238831050  MEMB      58              0.0000000000
      7776        64  POPS      C39            25.4390581765      -22.3170022215        7.4757191834  MEMB      58              0.0000000000
      7777        64  POPS      H9X            24.9250172197      -21.4707563487        6.9717845190  MEMB      58              0.0000000000
      7778        64  POPS      H9Y            25.0783109494      -22.2823025000        8.5259474682  MEMB      58              0.0000000000
      7779        64  POPS      C310           24.8725922041      -23.5613079178        6.8013061860  MEMB      58              0.0000000000
      7780        64  POPS      H10X           25.0593565416      -23.5405787551        5.7063135212  MEMB      58              0.0000000000
      7781        64  POPS      H10Y           23.7655693477      -23.5393760502        6.8926332931  MEMB      58              0.0000000000
      7782        64  POPS      C311           25.4756022220      -24.7843624810        7.4340139683  MEMB      58              0.0000000000
      7783        64  POPS      H11X           25.2489509198      -24.8497084098        8.5196838307  MEMB      58              0.0000000000
      7784        64  POPS      H11Y           26.5503286634      -24.7277346717        7.1581926354  MEMB      58              0.0000000000
      7785        64  POPS      C312           24.7402757998      -26.0699179721        6.9445748251  MEMB      58              0.0000000000
      7786        64  POPS      H12X           23.8013872448      -26.2929584649        7.4950855379  MEMB      58              0.0000000000
      7787        64  POPS      H12Y           25.3542888848      -26.9740391701        7.1442584781  MEMB      58              0.0000000000
      7788        64  POPS      C313           24.2756649198      -26.1571680253        5.4778246380  MEMB      58              0.0000000000
      7789        64  POPS      H13X           23.7151982729      -25.2451501778        5.1804677754  MEMB      58              0.0000000000
      7790        64  POPS      H13Y           23.6330372596      -27.0596244284        5.3946169233  MEMB      58              0.0000000000
      7791        64  POPS      C314           25.5089923756      -26.2419231118        4.5509284017  MEMB      58              0.0000000000
      7792        64  POPS      H14X           26.0331733873      -27.1840003279        4.8193415538  MEMB      58              0.0000000000
      7793        64  POPS      H14Y           26.2051281657      -25.4013975424        4.7588530427  MEMB      58              0.0000000000
      7794        64  POPS      C315           25.2625707118      -26.1887003936        3.0301728552  MEMB      58              0.0000000000
      7795        64  POPS      H15X           26.1061548457      -25.5449143575        2.7011946203  MEMB      58              0.0000000000
      7796        64  POPS      H15Y           24.3332795040      -25.6528523543        2.7410267039  MEMB      58              0.0000000000
      7797        64  POPS      C316           25.3878183530      -27.5539279898        2.3597857840  MEMB      58              0.0000000000
      7798        64  POPS      H16X           26.3893470014      -28.0330748820        2.3188019464  MEMB      58              0.0000000000
      7799        64  POPS      H16Y           25.1811465882      -27.3683013981        1.2840757767  MEMB      58              0.0000000000
      7800        64  POPS      H16Z           24.5838485849      -28.2714419046        2.6302065261  MEMB      58              0.0000000000
      7801        65  POPC      N             -33.0174751271      -18.7991646864       20.9558174128  MEMB      59              0.0000000000
      7802        65  POPC      C12           -32.6299641255      -19.9932191552       20.0891847533  MEMB      59              0.0000000000
      7803        65  POPC      H12A          -32.7045873733      -20.8479418014       20.7451425280  MEMB      59              0.0000000000
      7804        65  POPC      H12B          -31.5809393766      -19.8615349022       19.8687161386  MEMB      59              0.0000000000
      7805        65  POPC      C13           -34.4954184551      -18.8225227218       20.9911283568  MEMB      59              0.0000000000
      7806        65  POPC      H13A          -34.8648317974      -19.7563628502       21.3884648344  MEMB      59              0.0000000000
      7807        65  POPC      H13B          -34.8240609664      -17.9170083086       21.4794294520  MEMB      59              0.0000000000
      7808        65  POPC      H13C          -34.8600674078      -18.7875657003       19.9751513263  MEMB      59              0.0000000000
      7809        65  POPC      C14           -32.6227937381      -18.8769651154       22.4040262623  MEMB      59              0.0000000000
      7810        65  POPC      H14A          -31.5450108636      -18.9460927165       22.4016864445  MEMB      59              0.0000000000
      7811        65  POPC      H14B          -33.0615789810      -18.0153044816       22.8850753132  MEMB      59              0.0000000000
      7812        65  POPC      H14C          -32.9599392364      -19.8126936803       22.8249121565  MEMB      59              0.0000000000
      7813        65  POPC      C15           -32.5253430296      -17.5230916317       20.2545819008  MEMB      59              0.0000000000
      7814        65  POPC      H15A          -31.4653578151      -17.4871943374       20.4584022192  MEMB      59              0.0000000000
      7815        65  POPC      H15B          -32.9929014334      -16.7177375931       20.8015685724  MEMB      59              0.0000000000
      7816        65  POPC      H15C          -32.7286012602      -17.6117995733       19.1975970249  MEMB      59              0.0000000000
      7817        65  POPC      C11           -33.3257833288      -20.2204488749       18.6853136055  MEMB      59              0.0000000000
      7818        65  POPC      H11A          -34.4236951780      -20.0772595068       18.7770052176  MEMB      59              0.0000000000
      7819        65  POPC      H11B          -33.1180152261      -21.2689810531       18.3824378266  MEMB      59              0.0000000000
      7820        65  POPC      P             -31.3555341055      -19.5144073688       17.1870550866  MEMB      59              0.0000000000
      7821        65  POPC      O13           -30.7781709710      -20.6651196287       17.8544930398  MEMB      59              0.0000000000
      7822        65  POPC      O14           -30.6823852894      -18.2461026002       17.1683571325  MEMB      59              0.0000000000
      7823        65  POPC      O12           -32.8200742336      -19.2170186589       17.7712079589  MEMB      59              0.0000000000
      7824        65  POPC      O11           -31.6516626988      -19.8988092436       15.6388344931  MEMB      59              0.0000000000
      7825        65  POPC      C1            -32.1333822655      -21.2406922530       15.5093046982  MEMB      59              0.0000000000
      7826        65  POPC      HA            -33.0733646767      -21.3905966092       16.0822644550  MEMB      59              0.0000000000
      7827        65  POPC      HB            -31.3182107582      -21.9125792949       15.8533745525  MEMB      59              0.0000000000
      7828        65  POPC      C2            -32.3975039590      -21.7214530966       14.0479853584  MEMB      59              0.0000000000
      7829        65  POPC      HS            -32.7878608817      -22.7611877728       14.0180844550  MEMB      59              0.0000000000
      7830        65  POPC      O21           -31.1808799035      -21.5832971651       13.2981972474  MEMB      59              0.0000000000
      7831        65  POPC      C21           -30.5476928990      -22.6914597199       13.1269977601  MEMB      59              0.0000000000
      7832        65  POPC      O22           -30.9355224963      -23.8121023762       13.5071317974  MEMB      59              0.0000000000
      7833        65  POPC      C22           -29.1722443151      -22.3163978781       12.5058835209  MEMB      59              0.0000000000
      7834        65  POPC      H2R           -28.3745948749      -22.2652534031       13.2775445210  MEMB      59              0.0000000000
      7835        65  POPC      H2S           -29.1869588262      -21.2935392094       12.0724502220  MEMB      59              0.0000000000
      7836        65  POPC      C3            -33.4447812645      -20.8689309050       13.2736593135  MEMB      59              0.0000000000
      7837        65  POPC      HX            -33.4968831521      -19.8227875804       13.6440514576  MEMB      59              0.0000000000
      7838        65  POPC      HY            -34.3677021044      -21.3279535071       13.6881904692  MEMB      59              0.0000000000
      7839        65  POPC      O31           -33.4226232268      -21.0690358421       11.7976528842  MEMB      59              0.0000000000
      7840        65  POPC      C31           -32.8418879330      -20.1415894904       11.0862184609  MEMB      59              0.0000000000
      7841        65  POPC      O32           -32.1772725334      -19.2060886293       11.5402497060  MEMB      59              0.0000000000
      7842        65  POPC      C32           -33.0269921336      -20.5172976972        9.6428946235  MEMB      59              0.0000000000
      7843        65  POPC      H2X           -34.0981871919      -20.5152055587        9.3481790713  MEMB      59              0.0000000000
      7844        65  POPC      H2Y           -32.5988557745      -21.5186470526        9.4230777678  MEMB      59              0.0000000000
      7845        65  POPC      C23           -28.7734712863      -23.4506755722       11.4957824776  MEMB      59              0.0000000000
      7846        65  POPC      H3R           -29.2244537072      -24.3905249065       11.8799947954  MEMB      59              0.0000000000
      7847        65  POPC      H3S           -27.6802612804      -23.5166255930       11.3090638570  MEMB      59              0.0000000000
      7848        65  POPC      C24           -29.2988784478      -23.2139897893       10.0941012106  MEMB      59              0.0000000000
      7849        65  POPC      H4R           -28.9974646493      -22.1688342412        9.8680011461  MEMB      59              0.0000000000
      7850        65  POPC      H4S           -30.3984341849      -23.1881751133        9.9371544831  MEMB      59              0.0000000000
      7851        65  POPC      C25           -28.7057278327      -24.1815510280        9.0788075633  MEMB      59              0.0000000000
      7852        65  POPC      H5R           -28.7092451449      -25.2504849808        9.3816091737  MEMB      59              0.0000000000
      7853        65  POPC      H5S           -27.6090543734      -24.0072707133        9.1142309750  MEMB      59              0.0000000000
      7854        65  POPC      C26           -29.2499465169      -24.0222882093        7.6530727431  MEMB      59              0.0000000000
      7855        65  POPC      H6R           -28.6732695293      -24.7008785253        6.9887838456  MEMB      59              0.0000000000
      7856        65  POPC      H6S           -29.2378134576      -22.9547764702        7.3455135947  MEMB      59              0.0000000000
      7857        65  POPC      C27           -30.6816307042      -24.5315791662        7.4769688419  MEMB      59              0.0000000000
      7858        65  POPC      H7R           -31.3591685245      -24.0078275985        8.1847451585  MEMB      59              0.0000000000
      7859        65  POPC      H7S           -30.7526680593      -25.6222063366        7.6764874184  MEMB      59              0.0000000000
      7860        65  POPC      C28           -31.1889513217      -24.0965896771        6.1060624730  MEMB      59              0.0000000000
      7861        65  POPC      H8R           -30.7549743859      -23.1225120387        5.7943609229  MEMB      59              0.0000000000
      7862        65  POPC      H8S           -32.2501048682      -23.7680290264        6.0881184557  MEMB      59              0.0000000000
      7863        65  POPC      C29           -30.8200457847      -25.1584602060        5.1038359046  MEMB      59              0.0000000000
      7864        65  POPC      H91           -30.8637800877      -26.2041699928        5.4423310158  MEMB      59              0.0000000000
      7865        65  POPC      C210          -30.2251782154      -24.9185447054        3.8879804146  MEMB      59              0.0000000000
      7866        65  POPC      H101          -30.0084033148      -25.7348343094        3.1832240225  MEMB      59              0.0000000000
      7867        65  POPC      C211          -29.8267718444      -23.5856123353        3.3005570336  MEMB      59              0.0000000000
      7868        65  POPC      H11R          -30.2952126609      -22.7273579281        3.8280824426  MEMB      59              0.0000000000
      7869        65  POPC      H11S          -30.2953706278      -23.4344214844        2.3046270489  MEMB      59              0.0000000000
      7870        65  POPC      C212          -28.3027701151      -23.4707971824        3.0624904911  MEMB      59              0.0000000000
      7871        65  POPC      H12R          -27.9513070786      -24.3768630090        2.5241232913  MEMB      59              0.0000000000
      7872        65  POPC      H12S          -27.7315535853      -23.3544376239        4.0082672195  MEMB      59              0.0000000000
      7873        65  POPC      C213          -27.9082935686      -22.2357856782        2.2100758935  MEMB      59              0.0000000000
      7874        65  POPC      H13R          -26.8086510343      -22.0947908710        2.1377710165  MEMB      59              0.0000000000
      7875        65  POPC      H13S          -28.2894646998      -21.3593975424        2.7766213566  MEMB      59              0.0000000000
      7876        65  POPC      C214          -28.3311650412      -22.3230699871        0.7955586022  MEMB      59              0.0000000000
      7877        65  POPC      H14R          -29.4324174175      -22.1831702535        0.8401926063  MEMB      59              0.0000000000
      7878        65  POPC      H14S          -28.1399399491      -23.2837146561        0.2712331843  MEMB      59              0.0000000000
      7879        65  POPC      C215          -27.6991177583      -21.3609925273       -0.1765678736  MEMB      59              0.0000000000
      7880        65  POPC      H15R          -26.6591870131      -21.7518429627       -0.1866376454  MEMB      59              0.0000000000
      7881        65  POPC      H15S          -27.8705526153      -20.3554582570        0.2636955382  MEMB      59              0.0000000000
      7882        65  POPC      C216          -28.2609669386      -21.3801786550       -1.6517791292  MEMB      59              0.0000000000
      7883        65  POPC      H16R          -28.2617994363      -22.4251228178       -2.0291548488  MEMB      59              0.0000000000
      7884        65  POPC      H16S          -27.6745757547      -20.6313349326       -2.2259746439  MEMB      59              0.0000000000
      7885        65  POPC      C217          -29.7443566030      -20.7993703116       -1.6872830795  MEMB      59              0.0000000000
      7886        65  POPC      H17R          -29.6194476519      -19.7073328805       -1.8490644538  MEMB      59              0.0000000000
      7887        65  POPC      H17S          -30.2294422069      -20.7874366384       -0.6878488413  MEMB      59              0.0000000000
      7888        65  POPC      C218          -30.7119435229      -21.3974912209       -2.7010522649  MEMB      59              0.0000000000
      7889        65  POPC      H18R          -31.7068090484      -20.9753921761       -2.4433779321  MEMB      59              0.0000000000
      7890        65  POPC      H18S          -30.7841883353      -22.5059461135       -2.6803302008  MEMB      59              0.0000000000
      7891        65  POPC      H18T          -30.4093474050      -21.1233623802       -3.7343050865  MEMB      59              0.0000000000
      7892        65  POPC      C33           -32.4172287619      -19.4421379795        8.7009299571  MEMB      59              0.0000000000
      7893        65  POPC      H3X           -32.7512006820      -18.4944212932        9.1748671358  MEMB      59              0.0000000000
      7894        65  POPC      H3Y           -32.8858234108      -19.5727228630        7.7020864597  MEMB      59              0.0000000000
      7895        65  POPC      C34           -30.8120894641      -19.4698328156        8.4898358889  MEMB      59              0.0000000000
      7896        65  POPC      H4X           -30.5033595548      -20.3892330152        7.9478860065  MEMB      59              0.0000000000
      7897        65  POPC      H4Y           -30.3109667946      -19.5379665629        9.4790555216  MEMB      59              0.0000000000
      7898        65  POPC      C35           -30.3082082165      -18.2163033567        7.6989637409  MEMB      59              0.0000000000
      7899        65  POPC      H5X           -29.2102208789      -18.1964085609        7.8673350330  MEMB      59              0.0000000000
      7900        65  POPC      H5Y           -30.6754941127      -17.2084323315        7.9881321997  MEMB      59              0.0000000000
      7901        65  POPC      C36           -30.4463330797      -18.1232569136        6.2038327979  MEMB      59              0.0000000000
      7902        65  POPC      H6X           -29.9210305020      -17.1799169576        5.9421312841  MEMB      59              0.0000000000
      7903        65  POPC      H6Y           -31.4885399796      -17.9218341343        5.8758777494  MEMB      59              0.0000000000
      7904        65  POPC      C37           -29.8598258972      -19.2691882332        5.4259151682  MEMB      59              0.0000000000
      7905        65  POPC      H7X           -30.2428964309      -20.2700972155        5.7187617025  MEMB      59              0.0000000000
      7906        65  POPC      H7Y           -28.7957776550      -19.2961087586        5.7443451482  MEMB      59              0.0000000000
      7907        65  POPC      C38           -29.9416178675      -19.0593884831        3.8949828641  MEMB      59              0.0000000000
      7908        65  POPC      H8X           -29.1699282382      -19.6457424335        3.3518384082  MEMB      59              0.0000000000
      7909        65  POPC      H8Y           -29.9618147611      -17.9748882023        3.6546238554  MEMB      59              0.0000000000
      7910        65  POPC      C39           -31.1941136848      -19.8173843872        3.3662415404  MEMB      59              0.0000000000
      7911        65  POPC      H9X           -31.4444693917      -20.7131320060        3.9739253614  MEMB      59              0.0000000000
      7912        65  POPC      H9Y           -30.8375661419      -20.1833368489        2.3796947559  MEMB      59              0.0000000000
      7913        65  POPC      C310          -32.5644087135      -19.0783119830        3.3116338174  MEMB      59              0.0000000000
      7914        65  POPC      H10X          -32.4215492466      -18.0487514724        2.9193107950  MEMB      59              0.0000000000
      7915        65  POPC      H10Y          -32.9452550694      -19.0207631818        4.3537310859  MEMB      59              0.0000000000
      7916        65  POPC      C311          -33.6176223105      -19.8488264170        2.4133342361  MEMB      59              0.0000000000
      7917        65  POPC      H11X          -34.6215533436      -19.3736503973        2.4388522947  MEMB      59              0.0000000000
      7918        65  POPC      H11Y          -33.7860007011      -20.9198901731        2.6558048041  MEMB      59              0.0000000000
      7919        65  POPC      C312          -33.1398820889      -19.8084805394        0.9075934582  MEMB      59              0.0000000000
      7920        65  POPC      H12X          -32.1377504177      -20.2499298202        0.7200403116  MEMB      59              0.0000000000
      7921        65  POPC      H12Y          -33.1504711098      -18.7461733343        0.5824587575  MEMB      59              0.0000000000
      7922        65  POPC      C313          -34.0848750962      -20.3827224726       -0.1220300597  MEMB      59              0.0000000000
      7923        65  POPC      H13X          -34.3427056176      -21.4225991485        0.1720801603  MEMB      59              0.0000000000
      7924        65  POPC      H13Y          -33.4847444588      -20.3652454608       -1.0568347205  MEMB      59              0.0000000000
      7925        65  POPC      C314          -35.4046781062      -19.5909013984       -0.3210311190  MEMB      59              0.0000000000
      7926        65  POPC      H14X          -35.7435210095      -18.9324423322        0.5071832508  MEMB      59              0.0000000000
      7927        65  POPC      H14Y          -36.2262472264      -20.2533880705       -0.6680998664  MEMB      59              0.0000000000
      7928        65  POPC      C315          -35.2962178050      -18.5448310009       -1.4484322880  MEMB      59              0.0000000000
      7929        65  POPC      H15X          -34.8646203148      -19.1162826932       -2.2978371219  MEMB      59              0.0000000000
      7930        65  POPC      H15Y          -34.6001234755      -17.6925575183       -1.2954486266  MEMB      59              0.0000000000
      7931        65  POPC      C316          -36.6345096331      -18.0143615153       -1.8870022112  MEMB      59              0.0000000000
      7932        65  POPC      H16X          -37.3616959155      -18.8527750740       -1.8361706977  MEMB      59              0.0000000000
      7933        65  POPC      H16Y          -36.6002379719      -17.7488989905       -2.9652773942  MEMB      59              0.0000000000
      7934        65  POPC      H16Z          -37.0437934450      -17.1324232571       -1.3494219964  MEMB      59              0.0000000000
      7935        66  POPC      N              19.8597495710      -30.1237389792       19.1990513530  MEMB      60              0.0000000000
      7936        66  POPC      C12            21.1472826868      -30.0281143896       18.5666844212  MEMB      60              0.0000000000
      7937        66  POPC      H12A           21.8731955182      -29.8538592941       19.3471238453  MEMB      60              0.0000000000
      7938        66  POPC      H12B           21.2075195605      -29.0678991182       18.0760132917  MEMB      60              0.0000000000
      7939        66  POPC      C13            18.9037929691      -29.9442214583       18.0794135982  MEMB      60              0.0000000000
      7940        66  POPC      H13A           17.9528449970      -29.6803147550       18.5181062650  MEMB      60              0.0000000000
      7941        66  POPC      H13B           19.2269854683      -29.1959979720       17.3708175649  MEMB      60              0.0000000000
      7942        66  POPC      H13C           18.6614687665      -30.8728622118       17.5841307179  MEMB      60              0.0000000000
      7943        66  POPC      C14            19.7199647555      -31.4495603569       19.7914942394  MEMB      60              0.0000000000
      7944        66  POPC      H14A           20.0387894936      -32.2239430323       19.1095248040  MEMB      60              0.0000000000
      7945        66  POPC      H14B           20.4366255370      -31.5997907265       20.5853633150  MEMB      60              0.0000000000
      7946        66  POPC      H14C           18.7256764826      -31.6952266744       20.1341876997  MEMB      60              0.0000000000
      7947        66  POPC      C15            19.6465188776      -29.0004056228       20.2301082404  MEMB      60              0.0000000000
      7948        66  POPC      H15A           19.8852577286      -29.3913966215       21.2081316609  MEMB      60              0.0000000000
      7949        66  POPC      H15B           18.5729737283      -28.9858574365       20.3471098343  MEMB      60              0.0000000000
      7950        66  POPC      H15C           20.1277855662      -28.0446295685       20.0842504920  MEMB      60              0.0000000000
      7951        66  POPC      C11            21.5092532454      -31.1495866134       17.5819805052  MEMB      60              0.0000000000
      7952        66  POPC      H11A           22.3445179948      -30.6802311076       17.0195221718  MEMB      60              0.0000000000
      7953        66  POPC      H11B           20.7677668705      -31.4938217813       16.8296367922  MEMB      60              0.0000000000
      7954        66  POPC      P              23.3298424998      -32.1551810594       19.1852844085  MEMB      60              0.0000000000
      7955        66  POPC      O13            23.9411424932      -33.5252256105       19.1146358356  MEMB      60              0.0000000000
      7956        66  POPC      O14            23.0342025603      -31.5169883549       20.5064414725  MEMB      60              0.0000000000
      7957        66  POPC      O12            21.9587405483      -32.2768572492       18.3461871696  MEMB      60              0.0000000000
      7958        66  POPC      O11            24.2990859863      -31.1642509096       18.3987187464  MEMB      60              0.0000000000
      7959        66  POPC      C1             24.5736836180      -29.8206511124       18.8601219625  MEMB      60              0.0000000000
      7960        66  POPC      HA             25.3540960819      -29.7523015769       19.6479071914  MEMB      60              0.0000000000
      7961        66  POPC      HB             23.6855872915      -29.3681579407       19.3508928801  MEMB      60              0.0000000000
      7962        66  POPC      C2             24.9031190781      -28.8398367482       17.7043875019  MEMB      60              0.0000000000
      7963        66  POPC      HS             25.1824187259      -27.8092554330       18.0113317830  MEMB      60              0.0000000000
      7964        66  POPC      O21            23.6975882933      -28.7818429360       16.9511895106  MEMB      60              0.0000000000
      7965        66  POPC      C21            23.7657503447      -28.0424101262       15.8875539443  MEMB      60              0.0000000000
      7966        66  POPC      O22            24.3553961168      -26.9958815059       15.7203345322  MEMB      60              0.0000000000
      7967        66  POPC      C22            22.9572092331      -28.6399856713       14.7435459174  MEMB      60              0.0000000000
      7968        66  POPC      H2R            21.9012987837      -28.7204062875       15.0795623002  MEMB      60              0.0000000000
      7969        66  POPC      H2S            23.1658189214      -29.7178013719       14.5729109433  MEMB      60              0.0000000000
      7970        66  POPC      C3             26.0854181931      -29.2834437541       16.7578500305  MEMB      60              0.0000000000
      7971        66  POPC      HX             26.9858538819      -29.3711129132       17.4027151118  MEMB      60              0.0000000000
      7972        66  POPC      HY             26.2310687803      -28.6016931950       15.8927934988  MEMB      60              0.0000000000
      7973        66  POPC      O31            25.8641472517      -30.5527592071       16.2676340288  MEMB      60              0.0000000000
      7974        66  POPC      C31            26.5433330469      -30.9519171747       15.2083758585  MEMB      60              0.0000000000
      7975        66  POPC      O32            27.2791759851      -30.2321015012       14.6155570637  MEMB      60              0.0000000000
      7976        66  POPC      C32            26.2251932994      -32.4021840365       14.9507219550  MEMB      60              0.0000000000
      7977        66  POPC      H2X            25.5365806443      -32.8358587178       15.7070681497  MEMB      60              0.0000000000
      7978        66  POPC      H2Y            27.1052186854      -32.9807745910       15.3044304082  MEMB      60              0.0000000000
      7979        66  POPC      C23            23.0623266771      -27.8294876861       13.4921927659  MEMB      60              0.0000000000
      7980        66  POPC      H3R            24.1189298471      -27.7926998520       13.1507879265  MEMB      60              0.0000000000
      7981        66  POPC      H3S            22.7277757820      -26.7752616120       13.5970935125  MEMB      60              0.0000000000
      7982        66  POPC      C24            22.1779542726      -28.2708998429       12.2865607303  MEMB      60              0.0000000000
      7983        66  POPC      H4R            21.1346796012      -28.1152666958       12.6353834963  MEMB      60              0.0000000000
      7984        66  POPC      H4S            22.4296314836      -29.3469398577       12.1720295650  MEMB      60              0.0000000000
      7985        66  POPC      C25            22.4828484576      -27.5352817058       10.9567058965  MEMB      60              0.0000000000
      7986        66  POPC      H5R            22.3303733953      -26.4401183927       11.0648246293  MEMB      60              0.0000000000
      7987        66  POPC      H5S            21.7752085650      -27.8167189311       10.1477808870  MEMB      60              0.0000000000
      7988        66  POPC      C26            23.8926072112      -27.9287980140       10.3518792380  MEMB      60              0.0000000000
      7989        66  POPC      H6R            24.6412909635      -27.6063676538       11.1067519326  MEMB      60              0.0000000000
      7990        66  POPC      H6S            24.0357491906      -27.1455593094        9.5770453005  MEMB      60              0.0000000000
      7991        66  POPC      C27            24.0481793160      -29.4632662093        9.9660730522  MEMB      60              0.0000000000
      7992        66  POPC      H7R            23.3397131936      -29.5753464336        9.1176422714  MEMB      60              0.0000000000
      7993        66  POPC      H7S            24.0009727658      -30.1579731839       10.8317943252  MEMB      60              0.0000000000
      7994        66  POPC      C28            25.4569610757      -29.8577908893        9.3716865381  MEMB      60              0.0000000000
      7995        66  POPC      H8R            25.4428427807      -30.7715913428        8.7399504860  MEMB      60              0.0000000000
      7996        66  POPC      H8S            25.9676093315      -30.2605488125       10.2724337254  MEMB      60              0.0000000000
      7997        66  POPC      C29            26.1926946078      -28.7913565701        8.6938254965  MEMB      60              0.0000000000
      7998        66  POPC      H91            26.8760465726      -28.1875464221        9.3090029551  MEMB      60              0.0000000000
      7999        66  POPC      C210           26.0466067937      -28.3582955495        7.4314656325  MEMB      60              0.0000000000
      8000        66  POPC      H101           26.8481830780      -27.7201656358        7.0311327302  MEMB      60              0.0000000000
      8001        66  POPC      C211           25.0763000479      -28.9766483842        6.5395697797  MEMB      60              0.0000000000
      8002        66  POPC      H11R           24.6062212936      -28.1341668197        5.9885960834  MEMB      60              0.0000000000
      8003        66  POPC      H11S           24.1807871837      -29.4686615930        6.9758048443  MEMB      60              0.0000000000
      8004        66  POPC      C212           25.8092239352      -29.9882890600        5.6753941640  MEMB      60              0.0000000000
      8005        66  POPC      H12R           26.2688205240      -30.8312027694        6.2344910983  MEMB      60              0.0000000000
      8006        66  POPC      H12S           26.6496948662      -29.4935653275        5.1432503734  MEMB      60              0.0000000000
      8007        66  POPC      C213           24.9820755474      -30.6983736130        4.6657102076  MEMB      60              0.0000000000
      8008        66  POPC      H13R           24.4097976832      -29.9445872633        4.0837947385  MEMB      60              0.0000000000
      8009        66  POPC      H13S           24.2293303183      -31.2257109364        5.2898980675  MEMB      60              0.0000000000
      8010        66  POPC      C214           25.8452606294      -31.6406527780        3.7810756365  MEMB      60              0.0000000000
      8011        66  POPC      H14R           26.4832067653      -32.3269613785        4.3780060954  MEMB      60              0.0000000000
      8012        66  POPC      H14S           26.5918440371      -30.9897618937        3.2778120228  MEMB      60              0.0000000000
      8013        66  POPC      C215           25.1308073722      -32.5993204411        2.7977488153  MEMB      60              0.0000000000
      8014        66  POPC      H15R           24.3602821251      -33.2150397721        3.3091208606  MEMB      60              0.0000000000
      8015        66  POPC      H15S           25.9410472271      -33.2232278230        2.3634998193  MEMB      60              0.0000000000
      8016        66  POPC      C216           24.4054670230      -31.7991993237        1.6693935912  MEMB      60              0.0000000000
      8017        66  POPC      H16R           25.0320359760      -30.9556111049        1.3087111459  MEMB      60              0.0000000000
      8018        66  POPC      H16S           23.4371320738      -31.3892968575        2.0280421040  MEMB      60              0.0000000000
      8019        66  POPC      C217           24.0239532816      -32.6330711783        0.4372203381  MEMB      60              0.0000000000
      8020        66  POPC      H17R           24.8433945250      -33.2466751041        0.0055638568  MEMB      60              0.0000000000
      8021        66  POPC      H17S           23.8785241542      -31.9152173688       -0.3981597814  MEMB      60              0.0000000000
      8022        66  POPC      C218           22.7975805699      -33.5295219116        0.7204844922  MEMB      60              0.0000000000
      8023        66  POPC      H18R           22.3121597302      -33.8961996158       -0.2091565212  MEMB      60              0.0000000000
      8024        66  POPC      H18S           22.0794541228      -33.0170142147        1.3957259539  MEMB      60              0.0000000000
      8025        66  POPC      H18T           23.0848985134      -34.4231058740        1.3148570218  MEMB      60              0.0000000000
      8026        66  POPC      C33            25.8618306901      -32.7463039271       13.4987017478  MEMB      60              0.0000000000
      8027        66  POPC      H3X            26.7820083537      -32.5842934501       12.8975804263  MEMB      60              0.0000000000
      8028        66  POPC      H3Y            25.0059499111      -32.0672028676       13.2971804197  MEMB      60              0.0000000000
      8029        66  POPC      C34            25.2474934511      -34.2292413199       13.2502187346  MEMB      60              0.0000000000
      8030        66  POPC      H4X            24.8035881669      -34.5799015114       14.2064120334  MEMB      60              0.0000000000
      8031        66  POPC      H4Y            26.1175742939      -34.8763851517       13.0083822833  MEMB      60              0.0000000000
      8032        66  POPC      C35            24.2225212284      -34.2977541926       12.0675715766  MEMB      60              0.0000000000
      8033        66  POPC      H5X            23.2894933565      -33.8407792158       12.4612133129  MEMB      60              0.0000000000
      8034        66  POPC      H5Y            24.1624645617      -35.3890825311       11.8682811935  MEMB      60              0.0000000000
      8035        66  POPC      C36            24.7412095132      -33.5913241113       10.8138774432  MEMB      60              0.0000000000
      8036        66  POPC      H6X            25.7861979338      -33.8865269506       10.5789820316  MEMB      60              0.0000000000
      8037        66  POPC      H6Y            24.8452789512      -32.4892018518       10.9077785902  MEMB      60              0.0000000000
      8038        66  POPC      C37            23.8979823642      -33.6608752503        9.5477422402  MEMB      60              0.0000000000
      8039        66  POPC      H7X            23.7426999148      -34.7333750909        9.3028905695  MEMB      60              0.0000000000
      8040        66  POPC      H7Y            24.4443471945      -33.1131886681        8.7503429004  MEMB      60              0.0000000000
      8041        66  POPC      C38            22.4886280408      -33.1318921648        9.6526676134  MEMB      60              0.0000000000
      8042        66  POPC      H8X            22.5634112675      -32.1493160639       10.1657681667  MEMB      60              0.0000000000
      8043        66  POPC      H8Y            21.9655089707      -33.8130386102       10.3574419149  MEMB      60              0.0000000000
      8044        66  POPC      C39            21.5792025422      -32.9672330473        8.3055293076  MEMB      60              0.0000000000
      8045        66  POPC      H9X            20.5479645079      -32.7085712055        8.6279634147  MEMB      60              0.0000000000
      8046        66  POPC      H9Y            21.5559331572      -33.9915610352        7.8759577288  MEMB      60              0.0000000000
      8047        66  POPC      C310           22.2047015991      -31.9803564790        7.2391931781  MEMB      60              0.0000000000
      8048        66  POPC      H10X           23.2736492590      -32.2697438618        7.1501613585  MEMB      60              0.0000000000
      8049        66  POPC      H10Y           22.1870801680      -30.9363699467        7.6188019606  MEMB      60              0.0000000000
      8050        66  POPC      C311           21.5421514514      -32.0367310819        5.8308202194  MEMB      60              0.0000000000
      8051        66  POPC      H11X           20.6395673840      -32.6845343379        5.8271102494  MEMB      60              0.0000000000
      8052        66  POPC      H11Y           22.3098826525      -32.4624959851        5.1499134487  MEMB      60              0.0000000000
      8053        66  POPC      C312           21.2728949677      -30.5428178320        5.2590609750  MEMB      60              0.0000000000
      8054        66  POPC      H12X           22.2308871836      -29.9832304480        5.3176596476  MEMB      60              0.0000000000
      8055        66  POPC      H12Y           20.4360387426      -30.1126121897        5.8497515897  MEMB      60              0.0000000000
      8056        66  POPC      C313           20.7837639899      -30.6103623527        3.8431288913  MEMB      60              0.0000000000
      8057        66  POPC      H13X           21.4790516000      -31.0199659132        3.0795054619  MEMB      60              0.0000000000
      8058        66  POPC      H13Y           20.6477569314      -29.5192483266        3.6840903144  MEMB      60              0.0000000000
      8059        66  POPC      C314           19.4425669044      -31.2559108446        3.7404785304  MEMB      60              0.0000000000
      8060        66  POPC      H14X           18.7387462171      -30.8136508872        4.4776098922  MEMB      60              0.0000000000
      8061        66  POPC      H14Y           19.5593790851      -32.3556943344        3.8460816785  MEMB      60              0.0000000000
      8062        66  POPC      C315           18.8145617233      -31.0834933931        2.3062920292  MEMB      60              0.0000000000
      8063        66  POPC      H15X           18.0917760941      -31.9241991719        2.2347677521  MEMB      60              0.0000000000
      8064        66  POPC      H15Y           19.5568661730      -31.2639005183        1.4995948877  MEMB      60              0.0000000000
      8065        66  POPC      C316           18.1640355213      -29.7975219181        1.9636504289  MEMB      60              0.0000000000
      8066        66  POPC      H16X           17.2808571537      -29.6157286905        2.6127026741  MEMB      60              0.0000000000
      8067        66  POPC      H16Y           17.8013815018      -29.8680721630        0.9158786653  MEMB      60              0.0000000000
      8068        66  POPC      H16Z           18.8334134477      -28.9131939500        2.0285983594  MEMB      60              0.0000000000
      8069        67  POPC      N             -22.8887147988      -31.4041920145       21.2506047168  MEMB      61              0.0000000000
      8070        67  POPC      C12           -21.6057276548      -31.9300797952       20.6055290790  MEMB      61              0.0000000000
      8071        67  POPC      H12A          -21.6158314535      -33.0090051436       20.5584346621  MEMB      61              0.0000000000
      8072        67  POPC      H12B          -20.8050507872      -31.5739859180       21.2368085199  MEMB      61              0.0000000000
      8073        67  POPC      C13           -22.8885559189      -29.9365699040       21.5496398303  MEMB      61              0.0000000000
      8074        67  POPC      H13A          -23.8103580301      -29.5625488915       21.9701031560  MEMB      61              0.0000000000
      8075        67  POPC      H13B          -22.0255292510      -29.7299202373       22.1651728579  MEMB      61              0.0000000000
      8076        67  POPC      H13C          -22.6780598466      -29.3322612619       20.6796384191  MEMB      61              0.0000000000
      8077        67  POPC      C14           -24.1137933120      -31.7343526971       20.4520881143  MEMB      61              0.0000000000
      8078        67  POPC      H14A          -24.0785987860      -32.8066831815       20.3285220470  MEMB      61              0.0000000000
      8079        67  POPC      H14B          -25.0080738988      -31.4189670555       20.9689963566  MEMB      61              0.0000000000
      8080        67  POPC      H14C          -24.0622235481      -31.3384859049       19.4485792136  MEMB      61              0.0000000000
      8081        67  POPC      C15           -22.9691488227      -32.1092007271       22.5489489031  MEMB      61              0.0000000000
      8082        67  POPC      H15A          -23.6008289428      -31.4971789435       23.1756943858  MEMB      61              0.0000000000
      8083        67  POPC      H15B          -22.0375147279      -31.9572271304       23.0736982895  MEMB      61              0.0000000000
      8084        67  POPC      H15C          -23.3100368965      -33.1284965061       22.4429707637  MEMB      61              0.0000000000
      8085        67  POPC      C11           -21.2633219668      -31.4672049197       19.1681308565  MEMB      61              0.0000000000
      8086        67  POPC      H11A          -20.3315435151      -32.0260335099       18.9361382018  MEMB      61              0.0000000000
      8087        67  POPC      H11B          -21.0395762275      -30.3799898305       19.1209895598  MEMB      61              0.0000000000
      8088        67  POPC      P             -22.1813595836      -31.5777412205       16.6351287276  MEMB      61              0.0000000000
      8089        67  POPC      O13           -22.5080320213      -32.8690426734       16.0001252244  MEMB      61              0.0000000000
      8090        67  POPC      O14           -20.7865997070      -31.1762762191       16.3290542896  MEMB      61              0.0000000000
      8091        67  POPC      O12           -22.3643842319      -31.7127314765       18.2636491532  MEMB      61              0.0000000000
      8092        67  POPC      O11           -23.2246844824      -30.4778663898       16.1971011052  MEMB      61              0.0000000000
      8093        67  POPC      C1            -24.6078190347      -30.7022688766       16.5047537869  MEMB      61              0.0000000000
      8094        67  POPC      HA            -24.9267411356      -30.2984540960       17.4894078347  MEMB      61              0.0000000000
      8095        67  POPC      HB            -24.8196642678      -31.7600848753       16.7702117752  MEMB      61              0.0000000000
      8096        67  POPC      C2            -25.5737300650      -30.4082102639       15.3639931953  MEMB      61              0.0000000000
      8097        67  POPC      HS            -26.5350122151      -30.8913729974       15.6411416385  MEMB      61              0.0000000000
      8098        67  POPC      O21           -25.0719479466      -31.0774916752       14.2157580719  MEMB      61              0.0000000000
      8099        67  POPC      C21           -25.8401598508      -31.0477006138       13.1340566343  MEMB      61              0.0000000000
      8100        67  POPC      O22           -26.9142642426      -30.4992396630       13.0147867035  MEMB      61              0.0000000000
      8101        67  POPC      C22           -25.0537128047      -31.7222402565       12.0381496299  MEMB      61              0.0000000000
      8102        67  POPC      H2R           -25.6327173003      -32.2456715435       11.2475205136  MEMB      61              0.0000000000
      8103        67  POPC      H2S           -24.3453487274      -32.4876369737       12.4211763643  MEMB      61              0.0000000000
      8104        67  POPC      C3            -25.7529573890      -28.8884021451       15.0138683806  MEMB      61              0.0000000000
      8105        67  POPC      HX            -25.6600016518      -28.3333320437       15.9717712564  MEMB      61              0.0000000000
      8106        67  POPC      HY            -26.6935219728      -28.6424682936       14.4761180322  MEMB      61              0.0000000000
      8107        67  POPC      O31           -24.6468199823      -28.5524313831       14.2085634520  MEMB      61              0.0000000000
      8108        67  POPC      C31           -24.6271253827      -27.3432391973       13.7594191275  MEMB      61              0.0000000000
      8109        67  POPC      O32           -25.1408308346      -26.4096001161       14.3132593356  MEMB      61              0.0000000000
      8110        67  POPC      C32           -24.0898907198      -27.3152581578       12.2792071335  MEMB      61              0.0000000000
      8111        67  POPC      H2X           -24.9450775130      -27.5666208153       11.6160379093  MEMB      61              0.0000000000
      8112        67  POPC      H2Y           -23.3209970611      -28.1167279606       12.3069509840  MEMB      61              0.0000000000
      8113        67  POPC      C23           -24.1408386074      -30.6315897611       11.3482859588  MEMB      61              0.0000000000
      8114        67  POPC      H3R           -23.3831886730      -30.3690893317       12.1172988351  MEMB      61              0.0000000000
      8115        67  POPC      H3S           -24.7662542242      -29.7710764945       11.0278281387  MEMB      61              0.0000000000
      8116        67  POPC      C24           -23.4804105119      -31.1519008453       10.0494525966  MEMB      61              0.0000000000
      8117        67  POPC      H4R           -22.8613535030      -32.0717733863       10.1196233705  MEMB      61              0.0000000000
      8118        67  POPC      H4S           -22.8000780648      -30.3665082189        9.6562262744  MEMB      61              0.0000000000
      8119        67  POPC      C25           -24.4925528211      -31.2847320104        8.9304740645  MEMB      61              0.0000000000
      8120        67  POPC      H5R           -25.1344437074      -32.1622021484        9.1592607736  MEMB      61              0.0000000000
      8121        67  POPC      H5S           -23.9357749890      -31.5804407801        8.0156650059  MEMB      61              0.0000000000
      8122        67  POPC      C26           -25.3856297325      -30.1516220925        8.5225348976  MEMB      61              0.0000000000
      8123        67  POPC      H6R           -24.8368443161      -29.2060059029        8.7199318918  MEMB      61              0.0000000000
      8124        67  POPC      H6S           -26.2593027480      -30.0625885237        9.2030416267  MEMB      61              0.0000000000
      8125        67  POPC      C27           -25.9105089236      -30.1091310023        7.0392140654  MEMB      61              0.0000000000
      8126        67  POPC      H7R           -26.3309457058      -31.1164572649        6.8322166799  MEMB      61              0.0000000000
      8127        67  POPC      H7S           -25.0087735247      -30.0220807671        6.3960835853  MEMB      61              0.0000000000
      8128        67  POPC      C28           -27.0317821188      -29.0000588165        6.7894214054  MEMB      61              0.0000000000
      8129        67  POPC      H8R           -27.9324344227      -29.1915825798        7.4110852395  MEMB      61              0.0000000000
      8130        67  POPC      H8S           -27.5160403718      -29.0520673090        5.7908677954  MEMB      61              0.0000000000
      8131        67  POPC      C29           -26.7025709942      -27.6109990183        7.0240316724  MEMB      61              0.0000000000
      8132        67  POPC      H91           -26.7112702582      -27.3368287501        8.0892798937  MEMB      61              0.0000000000
      8133        67  POPC      C210          -26.1473017219      -26.8340328591        6.0762696209  MEMB      61              0.0000000000
      8134        67  POPC      H101          -25.9882700209      -25.7810935954        6.3520005506  MEMB      61              0.0000000000
      8135        67  POPC      C211          -25.8236388386      -27.2280948600        4.6669266449  MEMB      61              0.0000000000
      8136        67  POPC      H11R          -25.9439782570      -26.2865253564        4.0896168777  MEMB      61              0.0000000000
      8137        67  POPC      H11S          -26.4631903036      -28.0190761488        4.2201113889  MEMB      61              0.0000000000
      8138        67  POPC      C212          -24.3822821662      -27.6607408847        4.4758562393  MEMB      61              0.0000000000
      8139        67  POPC      H12R          -23.9002927905      -28.2159570847        5.3087680221  MEMB      61              0.0000000000
      8140        67  POPC      H12S          -23.7949861667      -26.7176763999        4.4816763337  MEMB      61              0.0000000000
      8141        67  POPC      C213          -24.1708109523      -28.4498468975        3.2055790273  MEMB      61              0.0000000000
      8142        67  POPC      H13R          -24.5730905347      -27.8058286954        2.3945712030  MEMB      61              0.0000000000
      8143        67  POPC      H13S          -24.7550332595      -29.3946346873        3.2251048962  MEMB      61              0.0000000000
      8144        67  POPC      C214          -22.6809623899      -28.7908803646        2.9827508485  MEMB      61              0.0000000000
      8145        67  POPC      H14R          -22.3183920299      -29.2856070293        3.9090921226  MEMB      61              0.0000000000
      8146        67  POPC      H14S          -22.0901023296      -27.8745339104        2.7694091966  MEMB      61              0.0000000000
      8147        67  POPC      C215          -22.4439961321      -29.6283101306        1.7569927110  MEMB      61              0.0000000000
      8148        67  POPC      H15R          -22.9661474180      -30.6075083693        1.8103750826  MEMB      61              0.0000000000
      8149        67  POPC      H15S          -21.3715660542      -29.9141381916        1.7068223592  MEMB      61              0.0000000000
      8150        67  POPC      C216          -22.8288463007      -28.8700170954        0.4387708252  MEMB      61              0.0000000000
      8151        67  POPC      H16R          -22.2519327565      -27.9208785566        0.4638266808  MEMB      61              0.0000000000
      8152        67  POPC      H16S          -23.9116330089      -28.6448115410        0.3330529853  MEMB      61              0.0000000000
      8153        67  POPC      C217          -22.3911530910      -29.6815370070       -0.8448086431  MEMB      61              0.0000000000
      8154        67  POPC      H17R          -21.3618281056      -30.0803607974       -0.7193054216  MEMB      61              0.0000000000
      8155        67  POPC      H17S          -22.3984440809      -29.0715467329       -1.7733460047  MEMB      61              0.0000000000
      8156        67  POPC      C218          -23.2111628932      -30.9870598544       -0.9096848397  MEMB      61              0.0000000000
      8157        67  POPC      H18R          -24.3054402572      -30.8218243848       -1.0075370195  MEMB      61              0.0000000000
      8158        67  POPC      H18S          -23.0618476911      -31.6505223133       -0.0311388310  MEMB      61              0.0000000000
      8159        67  POPC      H18T          -23.0350328219      -31.5276005529       -1.8642093813  MEMB      61              0.0000000000
      8160        67  POPC      C33           -23.5489154569      -25.9666001822       11.8807215097  MEMB      61              0.0000000000
      8161        67  POPC      H3X           -22.6826045190      -25.6097688635       12.4777961296  MEMB      61              0.0000000000
      8162        67  POPC      H3Y           -24.2650348306      -25.1519444325       12.1211995058  MEMB      61              0.0000000000
      8163        67  POPC      C34           -22.9082852382      -25.9503838012       10.5009391485  MEMB      61              0.0000000000
      8164        67  POPC      H4X           -22.1827730861      -26.7917226373       10.4908385506  MEMB      61              0.0000000000
      8165        67  POPC      H4Y           -22.2884684932      -25.0331071975       10.4073837390  MEMB      61              0.0000000000
      8166        67  POPC      C35           -23.8785636628      -26.2406798540        9.2579613114  MEMB      61              0.0000000000
      8167        67  POPC      H5X           -24.8218967550      -25.7093710991        9.5072699643  MEMB      61              0.0000000000
      8168        67  POPC      H5Y           -24.0427423526      -27.3386543850        9.2153222050  MEMB      61              0.0000000000
      8169        67  POPC      C36           -23.2337863100      -25.7740797808        7.9827246126  MEMB      61              0.0000000000
      8170        67  POPC      H6X           -23.0028345527      -24.7008695942        8.1536105997  MEMB      61              0.0000000000
      8171        67  POPC      H6Y           -24.0611280257      -25.9132731835        7.2544028722  MEMB      61              0.0000000000
      8172        67  POPC      C37           -22.0126403814      -26.5899569247        7.4981803455  MEMB      61              0.0000000000
      8173        67  POPC      H7X           -21.1815641616      -26.2697764618        8.1623474597  MEMB      61              0.0000000000
      8174        67  POPC      H7Y           -21.8443300384      -26.3219146958        6.4332173308  MEMB      61              0.0000000000
      8175        67  POPC      C38           -22.0791788451      -28.1134703620        7.6084387423  MEMB      61              0.0000000000
      8176        67  POPC      H8X           -23.0454585499      -28.5041936442        7.2237830115  MEMB      61              0.0000000000
      8177        67  POPC      H8Y           -22.0020312157      -28.4224202412        8.6728252722  MEMB      61              0.0000000000
      8178        67  POPC      C39           -21.0531720182      -28.6899377617        6.6256169761  MEMB      61              0.0000000000
      8179        67  POPC      H9X           -20.0475949278      -28.4635975188        7.0402326875  MEMB      61              0.0000000000
      8180        67  POPC      H9Y           -21.2277046310      -28.2494066707        5.6207335250  MEMB      61              0.0000000000
      8181        67  POPC      C310          -21.0851819465      -30.2116785056        6.4699511006  MEMB      61              0.0000000000
      8182        67  POPC      H10X          -21.9606076791      -30.4901243016        5.8451161070  MEMB      61              0.0000000000
      8183        67  POPC      H10Y          -21.1517420445      -30.5989749725        7.5091298594  MEMB      61              0.0000000000
      8184        67  POPC      C311          -19.8244442619      -30.7426997921        5.7049795870  MEMB      61              0.0000000000
      8185        67  POPC      H11X          -18.9462468393      -30.9300933188        6.3591774262  MEMB      61              0.0000000000
      8186        67  POPC      H11Y          -19.5456034477      -30.0565850254        4.8768405295  MEMB      61              0.0000000000
      8187        67  POPC      C312          -20.0999087865      -32.1675658723        5.0831981961  MEMB      61              0.0000000000
      8188        67  POPC      H12X          -19.9780823285      -32.9597514354        5.8525620727  MEMB      61              0.0000000000
      8189        67  POPC      H12Y          -19.3484748564      -32.2356855693        4.2677059447  MEMB      61              0.0000000000
      8190        67  POPC      C313          -21.4993010065      -32.4394387149        4.4503892174  MEMB      61              0.0000000000
      8191        67  POPC      H13X          -21.7491113609      -31.7891768645        3.5848980252  MEMB      61              0.0000000000
      8192        67  POPC      H13Y          -22.3577922212      -32.4288134765        5.1555142262  MEMB      61              0.0000000000
      8193        67  POPC      C314          -21.5479916691      -33.8710690888        3.7505767710  MEMB      61              0.0000000000
      8194        67  POPC      H14X          -22.6092859518      -34.0868935916        3.5027965536  MEMB      61              0.0000000000
      8195        67  POPC      H14Y          -21.1413862961      -34.5976564131        4.4861469260  MEMB      61              0.0000000000
      8196        67  POPC      C315          -20.5911863562      -34.1150917971        2.4820576088  MEMB      61              0.0000000000
      8197        67  POPC      H15X          -20.9025939273      -35.0383488902        1.9482573473  MEMB      61              0.0000000000
      8198        67  POPC      H15Y          -19.5796652868      -34.2607697319        2.9178594088  MEMB      61              0.0000000000
      8199        67  POPC      C316          -20.4681212683      -32.8977473319        1.4481911617  MEMB      61              0.0000000000
      8200        67  POPC      H16X          -19.7857757310      -33.2577855373        0.6487555016  MEMB      61              0.0000000000
      8201        67  POPC      H16Y          -19.9461574714      -32.0407042858        1.9250054617  MEMB      61              0.0000000000
      8202        67  POPC      H16Z          -21.4363964836      -32.5740481102        1.0100322987  MEMB      61              0.0000000000
      8203        68  POPC      N              31.8746221116       23.2584001707       17.4458479617  MEMB      62              0.0000000000
      8204        68  POPC      C12            30.7384653169       24.1138556843       18.0218579229  MEMB      62              0.0000000000
      8205        68  POPC      H12A           30.1081420737       23.3836525124       18.5075491487  MEMB      62              0.0000000000
      8206        68  POPC      H12B           30.0286488992       24.5002181719       17.3054191958  MEMB      62              0.0000000000
      8207        68  POPC      C13            32.5738490549       22.4132761056       18.4871841929  MEMB      62              0.0000000000
      8208        68  POPC      H13A           33.1015261510       22.9890054381       19.2331685294  MEMB      62              0.0000000000
      8209        68  POPC      H13B           31.9459132048       21.6486798548       18.9201844302  MEMB      62              0.0000000000
      8210        68  POPC      H13C           33.3961393421       21.8626094081       18.0547434561  MEMB      62              0.0000000000
      8211        68  POPC      C14            31.2454428924       22.2279490779       16.5331706977  MEMB      62              0.0000000000
      8212        68  POPC      H14A           31.0877535573       22.6421852555       15.5483143510  MEMB      62              0.0000000000
      8213        68  POPC      H14B           31.8868805426       21.3705929534       16.3921105276  MEMB      62              0.0000000000
      8214        68  POPC      H14C           30.2707643433       21.9106589844       16.8733602535  MEMB      62              0.0000000000
      8215        68  POPC      C15            32.8088529613       24.0950212048       16.6790827253  MEMB      62              0.0000000000
      8216        68  POPC      H15A           32.2796948729       24.6653822269       15.9300298847  MEMB      62              0.0000000000
      8217        68  POPC      H15B           33.4487701215       23.4213488985       16.1285631752  MEMB      62              0.0000000000
      8218        68  POPC      H15C           33.2054780156       24.8049080138       17.3898212996  MEMB      62              0.0000000000
      8219        68  POPC      C11            31.0673288584       25.2004165357       19.0696158843  MEMB      62              0.0000000000
      8220        68  POPC      H11A           30.1282124962       25.5191896354       19.5703806012  MEMB      62              0.0000000000
      8221        68  POPC      H11B           31.4560136393       26.0427837397       18.4583364519  MEMB      62              0.0000000000
      8222        68  POPC      P              33.2798822172       25.3457304273       20.6643748408  MEMB      62              0.0000000000
      8223        68  POPC      O13            34.3131857101       24.3103368735       20.5570966575  MEMB      62              0.0000000000
      8224        68  POPC      O14            32.9235665704       26.0170203054       21.9233756586  MEMB      62              0.0000000000
      8225        68  POPC      O12            31.9423260514       24.7603684663       20.0110636770  MEMB      62              0.0000000000
      8226        68  POPC      O11            33.5327392431       26.4807351420       19.6073297477  MEMB      62              0.0000000000
      8227        68  POPC      C1             33.3173929149       27.8205437646       19.9611033199  MEMB      62              0.0000000000
      8228        68  POPC      HA             34.1322275901       28.2253887296       20.5986503226  MEMB      62              0.0000000000
      8229        68  POPC      HB             32.4460361125       27.9288936613       20.6417781970  MEMB      62              0.0000000000
      8230        68  POPC      C2             33.2482190964       28.6860657213       18.7224538178  MEMB      62              0.0000000000
      8231        68  POPC      HS             32.8256132465       29.6740266479       19.0046917778  MEMB      62              0.0000000000
      8232        68  POPC      O21            32.3963359502       28.0276880605       17.7701576742  MEMB      62              0.0000000000
      8233        68  POPC      C21            31.8302872575       28.7098133802       16.7734037778  MEMB      62              0.0000000000
      8234        68  POPC      O22            31.6672193307       29.8875669886       16.6299882874  MEMB      62              0.0000000000
      8235        68  POPC      C22            31.4942843148       27.5782932893       15.6812708050  MEMB      62              0.0000000000
      8236        68  POPC      H2R            31.1078572881       26.6139853231       16.0751046570  MEMB      62              0.0000000000
      8237        68  POPC      H2S            32.4809942174       27.4077442618       15.1999831228  MEMB      62              0.0000000000
      8238        68  POPC      C3             34.6903153399       29.0132176266       18.0924460690  MEMB      62              0.0000000000
      8239        68  POPC      HX             35.2593791716       29.5374098148       18.8897603656  MEMB      62              0.0000000000
      8240        68  POPC      HY             34.5285548486       29.7490026407       17.2758832452  MEMB      62              0.0000000000
      8241        68  POPC      O31            35.3157359477       27.8768995424       17.6036127867  MEMB      62              0.0000000000
      8242        68  POPC      C31            35.7323651028       27.9131706646       16.3103538813  MEMB      62              0.0000000000
      8243        68  POPC      O32            35.8010268052       28.8763321534       15.5941773422  MEMB      62              0.0000000000
      8244        68  POPC      C32            36.3119329439       26.6120008514       15.9754756174  MEMB      62              0.0000000000
      8245        68  POPC      H2X            35.6878415517       25.7588932957       16.3175846863  MEMB      62              0.0000000000
      8246        68  POPC      H2Y            37.2604842631       26.4540808319       16.5319227274  MEMB      62              0.0000000000
      8247        68  POPC      C23            30.4639162484       28.0387363201       14.6140707071  MEMB      62              0.0000000000
      8248        68  POPC      H3R            30.4339248143       29.1133112894       14.3335184289  MEMB      62              0.0000000000
      8249        68  POPC      H3S            29.4310315473       27.8641970190       14.9842141343  MEMB      62              0.0000000000
      8250        68  POPC      C24            30.6200549746       27.1875579738       13.3300096180  MEMB      62              0.0000000000
      8251        68  POPC      H4R            29.6475549391       26.9204747060       12.8639289054  MEMB      62              0.0000000000
      8252        68  POPC      H4S            31.1940076243       26.2683286775       13.5747885838  MEMB      62              0.0000000000
      8253        68  POPC      C25            31.3785718124       27.8510401602       12.1770494914  MEMB      62              0.0000000000
      8254        68  POPC      H5R            32.4617305889       27.8998031368       12.4193516990  MEMB      62              0.0000000000
      8255        68  POPC      H5S            30.8814155227       28.8414254165       12.0977173126  MEMB      62              0.0000000000
      8256        68  POPC      C26            31.3809401200       27.1053309978       10.8673234758  MEMB      62              0.0000000000
      8257        68  POPC      H6R            31.9917067683       26.1801896017       10.9407998312  MEMB      62              0.0000000000
      8258        68  POPC      H6S            31.9240162479       27.7560671202       10.1490403125  MEMB      62              0.0000000000
      8259        68  POPC      C27            30.0491026142       26.6323561495       10.3254539950  MEMB      62              0.0000000000
      8260        68  POPC      H7R            29.2250690949       27.1423006663       10.8688191979  MEMB      62              0.0000000000
      8261        68  POPC      H7S            29.7949079396       25.5639251334       10.4932669621  MEMB      62              0.0000000000
      8262        68  POPC      C28            29.8989361883       26.7875318831        8.7677152356  MEMB      62              0.0000000000
      8263        68  POPC      H8R            28.8885641997       26.3951903475        8.5237124583  MEMB      62              0.0000000000
      8264        68  POPC      H8S            30.6787045944       26.2034156329        8.2337766604  MEMB      62              0.0000000000
      8265        68  POPC      C29            29.9660710652       28.2346327835        8.2774314586  MEMB      62              0.0000000000
      8266        68  POPC      H91            29.1699767728       28.8831183365        8.6720208044  MEMB      62              0.0000000000
      8267        68  POPC      C210           30.9636086689       28.7856671384        7.5603753365  MEMB      62              0.0000000000
      8268        68  POPC      H101           30.7363123645       29.7435887421        7.0697404858  MEMB      62              0.0000000000
      8269        68  POPC      C211           32.1919659874       28.1099496614        7.0515360025  MEMB      62              0.0000000000
      8270        68  POPC      H11R           32.0205611937       27.6815057771        6.0409043026  MEMB      62              0.0000000000
      8271        68  POPC      H11S           32.5361106976       27.3069038619        7.7378321459  MEMB      62              0.0000000000
      8272        68  POPC      C212           33.4626302408       28.9439698928        6.9210102829  MEMB      62              0.0000000000
      8273        68  POPC      H12R           34.2541156521       28.4814638727        7.5486717764  MEMB      62              0.0000000000
      8274        68  POPC      H12S           33.3087749324       29.9948443956        7.2470655025  MEMB      62              0.0000000000
      8275        68  POPC      C213           34.1830049816       28.9713868651        5.5364573222  MEMB      62              0.0000000000
      8276        68  POPC      H13R           35.1453276878       29.5265598539        5.5427231988  MEMB      62              0.0000000000
      8277        68  POPC      H13S           33.4765623686       29.5454503898        4.8995028409  MEMB      62              0.0000000000
      8278        68  POPC      C214           34.5158503851       27.5753548486        4.8841159681  MEMB      62              0.0000000000
      8279        68  POPC      H14R           33.5586603761       27.0544422673        4.6678797612  MEMB      62              0.0000000000
      8280        68  POPC      H14S           35.1571654068       27.0909735992        5.6511957529  MEMB      62              0.0000000000
      8281        68  POPC      C215           35.4556752818       27.6436336557        3.7275940384  MEMB      62              0.0000000000
      8282        68  POPC      H15R           36.5293389163       27.8211381623        3.9513342711  MEMB      62              0.0000000000
      8283        68  POPC      H15S           35.0187991690       28.3473186281        2.9871283252  MEMB      62              0.0000000000
      8284        68  POPC      C216           35.4516125209       26.3094999900        2.9533767880  MEMB      62              0.0000000000
      8285        68  POPC      H16R           36.0284097271       26.5112908549        2.0255270566  MEMB      62              0.0000000000
      8286        68  POPC      H16S           34.3863622562       26.0493668714        2.7747893461  MEMB      62              0.0000000000
      8287        68  POPC      C217           36.0665210283       25.0506925758        3.6241160217  MEMB      62              0.0000000000
      8288        68  POPC      H17R           35.8325117872       25.0161930217        4.7096437091  MEMB      62              0.0000000000
      8289        68  POPC      H17S           37.1530382078       25.2716578770        3.5535794012  MEMB      62              0.0000000000
      8290        68  POPC      C218           35.6909167447       23.7315305825        2.9347991910  MEMB      62              0.0000000000
      8291        68  POPC      H18R           35.3824331197       23.8790908428        1.8777352186  MEMB      62              0.0000000000
      8292        68  POPC      H18S           34.9647787356       23.1508588457        3.5429646720  MEMB      62              0.0000000000
      8293        68  POPC      H18T           36.5822648340       23.0684016657        2.9437641254  MEMB      62              0.0000000000
      8294        68  POPC      C33            36.4478426338       26.3952833899       14.4385453358  MEMB      62              0.0000000000
      8295        68  POPC      H3X            37.3688316760       25.7806658238       14.3471905371  MEMB      62              0.0000000000
      8296        68  POPC      H3Y            36.7760769229       27.2705558219       13.8381441680  MEMB      62              0.0000000000
      8297        68  POPC      C34            35.3076853574       25.5344345358       13.7999363846  MEMB      62              0.0000000000
      8298        68  POPC      H4X            34.4003071406       26.0809220115       13.4647687933  MEMB      62              0.0000000000
      8299        68  POPC      H4Y            34.8725448351       24.7601033888       14.4673082671  MEMB      62              0.0000000000
      8300        68  POPC      C35            35.8227960531       24.9106951261       12.4438652513  MEMB      62              0.0000000000
      8301        68  POPC      H5X            36.4744400151       24.0593422474       12.7352054865  MEMB      62              0.0000000000
      8302        68  POPC      H5Y            36.3804606892       25.5550522633       11.7310294644  MEMB      62              0.0000000000
      8303        68  POPC      C36            34.6512732187       24.3593390044       11.6593318409  MEMB      62              0.0000000000
      8304        68  POPC      H6X            34.0020953183       25.2420933893       11.4759358223  MEMB      62              0.0000000000
      8305        68  POPC      H6Y            34.0356197921       23.6280136020       12.2254192963  MEMB      62              0.0000000000
      8306        68  POPC      C37            35.1661571465       23.7973450540       10.3082989700  MEMB      62              0.0000000000
      8307        68  POPC      H7X            35.8794743969       22.9529233971       10.4198860076  MEMB      62              0.0000000000
      8308        68  POPC      H7Y            35.7722691976       24.6129989618        9.8592363629  MEMB      62              0.0000000000
      8309        68  POPC      C38            34.0730042910       23.1888727468        9.3738889780  MEMB      62              0.0000000000
      8310        68  POPC      H8X            33.2984524068       23.9853286192        9.3669465827  MEMB      62              0.0000000000
      8311        68  POPC      H8Y            33.6205410664       22.2706422870        9.8056889591  MEMB      62              0.0000000000
      8312        68  POPC      C39            34.5551765818       22.9570529597        7.9578700154  MEMB      62              0.0000000000
      8313        68  POPC      H9X            35.1267757399       22.0061538138        8.0160563034  MEMB      62              0.0000000000
      8314        68  POPC      H9Y            35.2973574776       23.7137474475        7.6248506312  MEMB      62              0.0000000000
      8315        68  POPC      C310           33.4915641590       22.9498310356        6.8287646281  MEMB      62              0.0000000000
      8316        68  POPC      H10X           32.8870529005       22.0190247349        6.7788942982  MEMB      62              0.0000000000
      8317        68  POPC      H10Y           34.0966355766       22.9247347024        5.8973251916  MEMB      62              0.0000000000
      8318        68  POPC      C311           32.4872783432       24.1447338121        6.7905504652  MEMB      62              0.0000000000
      8319        68  POPC      H11X           33.1183783675       25.0316939180        7.0126665298  MEMB      62              0.0000000000
      8320        68  POPC      H11Y           31.7156164087       24.0097275984        7.5783530008  MEMB      62              0.0000000000
      8321        68  POPC      C312           31.7618091977       24.3126761030        5.4523905953  MEMB      62              0.0000000000
      8322        68  POPC      H12X           32.5141519096       24.6936659961        4.7291004045  MEMB      62              0.0000000000
      8323        68  POPC      H12Y           31.0762950930       25.1868150028        5.4689016919  MEMB      62              0.0000000000
      8324        68  POPC      C313           31.0769110206       23.0358957541        4.9522262538  MEMB      62              0.0000000000
      8325        68  POPC      H13X           30.2814881887       22.6333804923        5.6152537025  MEMB      62              0.0000000000
      8326        68  POPC      H13Y           31.8366047341       22.2361724406        4.8194518392  MEMB      62              0.0000000000
      8327        68  POPC      C314           30.3097507765       23.2954225071        3.5721346072  MEMB      62              0.0000000000
      8328        68  POPC      H14X           29.5442073010       24.0595697303        3.8257947151  MEMB      62              0.0000000000
      8329        68  POPC      H14Y           29.8098103025       22.3594107208        3.2431026413  MEMB      62              0.0000000000
      8330        68  POPC      C315           31.2030072993       23.8859070288        2.4858377423  MEMB      62              0.0000000000
      8331        68  POPC      H15X           31.6858404853       24.8266414310        2.8267367548  MEMB      62              0.0000000000
      8332        68  POPC      H15Y           30.5616314603       24.2554857992        1.6573632414  MEMB      62              0.0000000000
      8333        68  POPC      C316           32.2498731581       23.0115941016        1.7473498003  MEMB      62              0.0000000000
      8334        68  POPC      H16X           33.1187798536       22.8090114321        2.4093785985  MEMB      62              0.0000000000
      8335        68  POPC      H16Y           32.6485502042       23.5962433144        0.8908660962  MEMB      62              0.0000000000
      8336        68  POPC      H16Z           31.7531226773       22.0861686576        1.3852054696  MEMB      62              0.0000000000
      8337        69  POPC      N             -30.3500464338       30.2602564592       17.2258217237  MEMB      63              0.0000000000
      8338        69  POPC      C12           -29.2673016412       29.1519727183       17.4184304658  MEMB      63              0.0000000000
      8339        69  POPC      H12A          -28.2455622595       29.4892018752       17.3250215807  MEMB      63              0.0000000000
      8340        69  POPC      H12B          -29.3235793096       28.4473715987       16.6018704753  MEMB      63              0.0000000000
      8341        69  POPC      C13           -30.0776385658       31.3230683728       18.3028554830  MEMB      63              0.0000000000
      8342        69  POPC      H13A          -30.6803526944       32.2125784642       18.1937340756  MEMB      63              0.0000000000
      8343        69  POPC      H13B          -30.4324816280       30.8418298302       19.2022418729  MEMB      63              0.0000000000
      8344        69  POPC      H13C          -29.0242511878       31.5595005580       18.2732800232  MEMB      63              0.0000000000
      8345        69  POPC      C14           -30.3927983680       30.8593241023       15.8047059565  MEMB      63              0.0000000000
      8346        69  POPC      H14A          -30.7315752769       30.0823499037       15.1354218331  MEMB      63              0.0000000000
      8347        69  POPC      H14B          -31.1979812283       31.5787310589       15.7815889333  MEMB      63              0.0000000000
      8348        69  POPC      H14C          -29.4416277673       31.2579280917       15.4840980971  MEMB      63              0.0000000000
      8349        69  POPC      C15           -31.7045047743       29.7153921534       17.5499558067  MEMB      63              0.0000000000
      8350        69  POPC      H15A          -31.9245892071       29.4792945338       18.5805966964  MEMB      63              0.0000000000
      8351        69  POPC      H15B          -31.8673837599       28.8986681312       16.8623276471  MEMB      63              0.0000000000
      8352        69  POPC      H15C          -32.3552104068       30.4721143521       17.1372166819  MEMB      63              0.0000000000
      8353        69  POPC      C11           -29.3223224384       28.2022229130       18.6302937276  MEMB      63              0.0000000000
      8354        69  POPC      H11A          -28.4603697867       27.5279422584       18.4387100686  MEMB      63              0.0000000000
      8355        69  POPC      H11B          -30.2993694660       27.6733692071       18.6340067301  MEMB      63              0.0000000000
      8356        69  POPC      P             -28.0687164433       28.7034230274       20.8810063994  MEMB      63              0.0000000000
      8357        69  POPC      O13           -28.3558679745       27.3430770845       21.5095948644  MEMB      63              0.0000000000
      8358        69  POPC      O14           -28.0529368717       29.8489313704       21.7957714169  MEMB      63              0.0000000000
      8359        69  POPC      O12           -29.1877959917       28.9802496810       19.7779113523  MEMB      63              0.0000000000
      8360        69  POPC      O11           -26.6587360108       28.6702306951       20.1036528212  MEMB      63              0.0000000000
      8361        69  POPC      C1            -25.5752748523       27.8204506129       20.4592929099  MEMB      63              0.0000000000
      8362        69  POPC      HA            -25.9101671916       26.9306462625       21.0341115447  MEMB      63              0.0000000000
      8363        69  POPC      HB            -24.8876993664       28.4762940591       21.0349926552  MEMB      63              0.0000000000
      8364        69  POPC      C2            -24.8388764390       27.3075789485       19.2021629338  MEMB      63              0.0000000000
      8365        69  POPC      HS            -23.7536425022       27.3846195940       19.4272246349  MEMB      63              0.0000000000
      8366        69  POPC      O21           -25.0027111488       28.1093761235       18.0456767270  MEMB      63              0.0000000000
      8367        69  POPC      C21           -24.4155878989       29.3277479363       18.0819366991  MEMB      63              0.0000000000
      8368        69  POPC      O22           -23.7493121924       29.6700349671       19.0223939552  MEMB      63              0.0000000000
      8369        69  POPC      C22           -24.8531759579       30.0454474478       16.7895303789  MEMB      63              0.0000000000
      8370        69  POPC      H2R           -25.8711015082       29.7827074345       16.4302029667  MEMB      63              0.0000000000
      8371        69  POPC      H2S           -24.1948872870       29.7305102822       15.9518004980  MEMB      63              0.0000000000
      8372        69  POPC      C3            -25.2182139563       25.8642001943       18.8011886739  MEMB      63              0.0000000000
      8373        69  POPC      HX            -24.9002316461       25.2317441309       19.6574643091  MEMB      63              0.0000000000
      8374        69  POPC      HY            -24.4083761222       25.5837149218       18.0942150327  MEMB      63              0.0000000000
      8375        69  POPC      O31           -26.5867026092       25.6967771045       18.3619105664  MEMB      63              0.0000000000
      8376        69  POPC      C31           -26.7937088346       25.6343829318       17.0442923731  MEMB      63              0.0000000000
      8377        69  POPC      O32           -25.9580331294       25.7619024290       16.2012333669  MEMB      63              0.0000000000
      8378        69  POPC      C32           -28.3205747122       25.1756838884       16.5814025590  MEMB      63              0.0000000000
      8379        69  POPC      H2X           -29.0490042273       25.3271679902       17.4064868499  MEMB      63              0.0000000000
      8380        69  POPC      H2Y           -28.2644103926       24.0925601393       16.3405520509  MEMB      63              0.0000000000
      8381        69  POPC      C23           -24.7794934508       31.5735306204       17.1386809059  MEMB      63              0.0000000000
      8382        69  POPC      H3R           -23.7272831114       31.7531106725       17.4467813535  MEMB      63              0.0000000000
      8383        69  POPC      H3S           -25.5220704337       31.8528002779       17.9164397937  MEMB      63              0.0000000000
      8384        69  POPC      C24           -25.0536914324       32.5084064612       15.9465071442  MEMB      63              0.0000000000
      8385        69  POPC      H4R           -24.4138698764       32.0734044707       15.1491849507  MEMB      63              0.0000000000
      8386        69  POPC      H4S           -24.7514347360       33.5188991936       16.2956004545  MEMB      63              0.0000000000
      8387        69  POPC      C25           -26.4954080363       32.4640599789       15.3851436495  MEMB      63              0.0000000000
      8388        69  POPC      H5R           -27.1593941663       32.9344343371       16.1415770817  MEMB      63              0.0000000000
      8389        69  POPC      H5S           -26.7731232392       31.3942569602       15.2723746890  MEMB      63              0.0000000000
      8390        69  POPC      C26           -26.6604797731       33.1018035646       13.9781971952  MEMB      63              0.0000000000
      8391        69  POPC      H6R           -26.1527929362       34.0563819331       14.2338434563  MEMB      63              0.0000000000
      8392        69  POPC      H6S           -27.7234774460       33.1068831812       13.6551935928  MEMB      63              0.0000000000
      8393        69  POPC      C27           -25.7729114748       32.5674709428       12.7959611043  MEMB      63              0.0000000000
      8394        69  POPC      H7R           -26.2816741590       31.6249217729       12.5008640747  MEMB      63              0.0000000000
      8395        69  POPC      H7S           -24.7277847286       32.3495251247       13.1034197517  MEMB      63              0.0000000000
      8396        69  POPC      C28           -25.6029564560       33.5401717965       11.6582076773  MEMB      63              0.0000000000
      8397        69  POPC      H8R           -24.8817123206       33.2151894739       10.8781340395  MEMB      63              0.0000000000
      8398        69  POPC      H8S           -25.1906826101       34.4559371877       12.1333133559  MEMB      63              0.0000000000
      8399        69  POPC      C29           -26.8528002239       33.9615788065       10.8872482932  MEMB      63              0.0000000000
      8400        69  POPC      H91           -27.2099499280       34.9664378117       11.1568820619  MEMB      63              0.0000000000
      8401        69  POPC      C210          -27.4838552895       33.2244204015        9.9341179837  MEMB      63              0.0000000000
      8402        69  POPC      H101          -28.2513998228       33.5916552176        9.2369711227  MEMB      63              0.0000000000
      8403        69  POPC      C211          -27.1469079311       31.8307710319        9.5236110564  MEMB      63              0.0000000000
      8404        69  POPC      H11R          -27.9653829952       31.2330958312        9.9788082372  MEMB      63              0.0000000000
      8405        69  POPC      H11S          -26.2068881090       31.4403316126        9.9688538581  MEMB      63              0.0000000000
      8406        69  POPC      C212          -27.2404027496       31.5143620172        8.1057279073  MEMB      63              0.0000000000
      8407        69  POPC      H12R          -28.1068673064       32.0023560273        7.6103275052  MEMB      63              0.0000000000
      8408        69  POPC      H12S          -27.4961645864       30.4343248169        8.0564672459  MEMB      63              0.0000000000
      8409        69  POPC      C213          -25.9338975330       31.6361195102        7.2970819871  MEMB      63              0.0000000000
      8410        69  POPC      H13R          -25.0922376696       31.0749945836        7.7565039246  MEMB      63              0.0000000000
      8411        69  POPC      H13S          -25.6630751198       32.7130528720        7.3315838379  MEMB      63              0.0000000000
      8412        69  POPC      C214          -26.1542713567       31.1574580140        5.8241833653  MEMB      63              0.0000000000
      8413        69  POPC      H14R          -27.0920586663       31.5030121213        5.3389321015  MEMB      63              0.0000000000
      8414        69  POPC      H14S          -26.1726158263       30.0489029411        5.8955277131  MEMB      63              0.0000000000
      8415        69  POPC      C215          -24.8184317959       31.5483318181        5.0921461687  MEMB      63              0.0000000000
      8416        69  POPC      H15R          -24.0419667222       31.2735384539        5.8377414771  MEMB      63              0.0000000000
      8417        69  POPC      H15S          -24.8071032571       32.6334379120        4.8539498359  MEMB      63              0.0000000000
      8418        69  POPC      C216          -24.5918663792       30.7433053060        3.8337629735  MEMB      63              0.0000000000
      8419        69  POPC      H16R          -25.1978865256       30.8967219872        2.9153280610  MEMB      63              0.0000000000
      8420        69  POPC      H16S          -24.7647774293       29.7320308135        4.2600807223  MEMB      63              0.0000000000
      8421        69  POPC      C217          -23.1811559383       30.9416862908        3.3255152389  MEMB      63              0.0000000000
      8422        69  POPC      H17R          -22.8603773235       31.9400654711        3.6924775101  MEMB      63              0.0000000000
      8423        69  POPC      H17S          -23.0920499526       30.8180974251        2.2250132425  MEMB      63              0.0000000000
      8424        69  POPC      C218          -22.1762217974       29.9823603821        3.9684145671  MEMB      63              0.0000000000
      8425        69  POPC      H18R          -22.0569933916       30.1009815246        5.0666109273  MEMB      63              0.0000000000
      8426        69  POPC      H18S          -21.1782967605       30.0161114817        3.4812534038  MEMB      63              0.0000000000
      8427        69  POPC      H18T          -22.4731115874       28.9144982113        3.8919448211  MEMB      63              0.0000000000
      8428        69  POPC      C33           -28.8499620412       25.9175033140       15.3744250528  MEMB      63              0.0000000000
      8429        69  POPC      H3X           -28.4338885349       25.3624656539       14.5065905016  MEMB      63              0.0000000000
      8430        69  POPC      H3Y           -28.4731935055       26.9588822158       15.2855636601  MEMB      63              0.0000000000
      8431        69  POPC      C34           -30.3790526748       25.8759699216       15.2580543532  MEMB      63              0.0000000000
      8432        69  POPC      H4X           -30.7893780397       26.4897956648       16.0882181027  MEMB      63              0.0000000000
      8433        69  POPC      H4Y           -30.7427675360       24.8328803824       15.3763613438  MEMB      63              0.0000000000
      8434        69  POPC      C35           -30.9421372584       26.2555507039       13.8640697652  MEMB      63              0.0000000000
      8435        69  POPC      H5X           -32.0474123195       26.2811562369       13.9737615588  MEMB      63              0.0000000000
      8436        69  POPC      H5Y           -30.6875963910       25.3816379567       13.2270404994  MEMB      63              0.0000000000
      8437        69  POPC      C36           -30.3670144096       27.4868042825       13.1037737500  MEMB      63              0.0000000000
      8438        69  POPC      H6X           -29.2649943410       27.5764039244       13.2126081500  MEMB      63              0.0000000000
      8439        69  POPC      H6Y           -30.8131106037       28.3306880464       13.6722626630  MEMB      63              0.0000000000
      8440        69  POPC      C37           -30.7288188364       27.6891081079       11.6299022626  MEMB      63              0.0000000000
      8441        69  POPC      H7X           -31.0874437132       28.7196210603       11.4207316429  MEMB      63              0.0000000000
      8442        69  POPC      H7Y           -31.6025412378       27.0617036574       11.3518843749  MEMB      63              0.0000000000
      8443        69  POPC      C38           -29.4766628364       27.3927284586       10.7515449093  MEMB      63              0.0000000000
      8444        69  POPC      H8X           -29.4569987302       26.3018839673       10.5418003416  MEMB      63              0.0000000000
      8445        69  POPC      H8Y           -28.5531250572       27.7338472840       11.2663621176  MEMB      63              0.0000000000
      8446        69  POPC      C39           -29.5546012176       27.9595464223        9.3890836131  MEMB      63              0.0000000000
      8447        69  POPC      H9X           -28.6902047677       27.5890796857        8.7975660479  MEMB      63              0.0000000000
      8448        69  POPC      H9Y           -29.3308582231       29.0249378455        9.6108973516  MEMB      63              0.0000000000
      8449        69  POPC      C310          -30.8971076903       27.7032200034        8.5995873232  MEMB      63              0.0000000000
      8450        69  POPC      H10X          -31.7127405354       28.1832226781        9.1815333236  MEMB      63              0.0000000000
      8451        69  POPC      H10Y          -31.0317261891       26.6046908753        8.5024660108  MEMB      63              0.0000000000
      8452        69  POPC      C311          -30.7965599392       28.2652208687        7.2062358737  MEMB      63              0.0000000000
      8453        69  POPC      H11X          -30.5407913191       29.3437510381        7.2815746609  MEMB      63              0.0000000000
      8454        69  POPC      H11Y          -31.7581075829       28.0308582074        6.7014368727  MEMB      63              0.0000000000
      8455        69  POPC      C312          -29.6740482373       27.7110334804        6.2884312807  MEMB      63              0.0000000000
      8456        69  POPC      H12X          -28.6460656445       28.0461114444        6.5439609950  MEMB      63              0.0000000000
      8457        69  POPC      H12Y          -29.8468517893       28.0938851309        5.2598958653  MEMB      63              0.0000000000
      8458        69  POPC      C313          -29.6378915388       26.1330882502        6.2792487338  MEMB      63              0.0000000000
      8459        69  POPC      H13X          -30.6283321717       25.7284452829        5.9798957840  MEMB      63              0.0000000000
      8460        69  POPC      H13Y          -29.3171806326       25.8215049081        7.2962939480  MEMB      63              0.0000000000
      8461        69  POPC      C314          -28.5160173562       25.4550391426        5.3918296265  MEMB      63              0.0000000000
      8462        69  POPC      H14X          -28.6223663685       24.3558969972        5.5138852934  MEMB      63              0.0000000000
      8463        69  POPC      H14Y          -27.4753236269       25.6914825837        5.7006535445  MEMB      63              0.0000000000
      8464        69  POPC      C315          -28.7030328029       25.7152036821        3.8766785421  MEMB      63              0.0000000000
      8465        69  POPC      H15X          -28.3884022485       26.7580858806        3.6582169032  MEMB      63              0.0000000000
      8466        69  POPC      H15Y          -29.7788008545       25.5603380568        3.6463286813  MEMB      63              0.0000000000
      8467        69  POPC      C316          -28.0100726153       24.7349776527        2.8534453217  MEMB      63              0.0000000000
      8468        69  POPC      H16X          -28.2264129979       25.0089670292        1.7987196775  MEMB      63              0.0000000000
      8469        69  POPC      H16Y          -28.4767014368       23.7337770822        2.9725078606  MEMB      63              0.0000000000
      8470        69  POPC      H16Z          -26.9169586178       24.6486016350        3.0322242391  MEMB      63              0.0000000000
      8471        70  POPS      N             -32.9398978891      -29.0313777608       20.6949875813  MEMB      64              0.0000000000
      8472        70  POPS      HN1           -33.1930934118      -29.0148550022       21.7035602044  MEMB      64              0.0000000000
      8473        70  POPS      HN2           -33.3718279383      -28.2878319233       20.1100293508  MEMB      64              0.0000000000
      8474        70  POPS      HN3           -33.1233292017      -29.9691615725       20.2844822916  MEMB      64              0.0000000000
      8475        70  POPS      C12           -31.4472941491      -28.8516269842       20.5581494045  MEMB      64              0.0000000000
      8476        70  POPS      H12A          -31.0549015090      -29.6565331010       21.1619326413  MEMB      64              0.0000000000
      8477        70  POPS      C13           -30.8558524570      -27.5212743234       21.1271249708  MEMB      64              0.0000000000
      8478        70  POPS      O13A          -31.6619427397      -26.6746004214       21.5321310587  MEMB      64              0.0000000000
      8479        70  POPS      O13B          -29.5899238770      -27.3125256337       21.0909782941  MEMB      64              0.0000000000
      8480        70  POPS      C11           -30.9853725055      -29.0330450386       19.0662310756  MEMB      64              0.0000000000
      8481        70  POPS      H11A          -29.8809126162      -28.9166198610       19.0356611922  MEMB      64              0.0000000000
      8482        70  POPS      H11B          -31.4712522200      -28.2382702012       18.4607767582  MEMB      64              0.0000000000
      8483        70  POPS      P             -31.1322716859      -30.5178038588       16.9018952808  MEMB      64              0.0000000000
      8484        70  POPS      O13           -31.2720377340      -29.2236400756       16.2557388745  MEMB      64              0.0000000000
      8485        70  POPS      O14           -32.1041865727      -31.5185170761       16.3967244625  MEMB      64              0.0000000000
      8486        70  POPS      O12           -31.3124006030      -30.2562964549       18.4706463858  MEMB      64              0.0000000000
      8487        70  POPS      O11           -29.6489247120      -30.9640328821       16.9053926155  MEMB      64              0.0000000000
      8488        70  POPS      C1            -29.1583469576      -32.1405469852       17.3918532858  MEMB      64              0.0000000000
      8489        70  POPS      HA            -29.9460125717      -32.6451116738       17.9912848826  MEMB      64              0.0000000000
      8490        70  POPS      HB            -28.2871327249      -31.9769052569       18.0615755421  MEMB      64              0.0000000000
      8491        70  POPS      C2            -28.7612430874      -33.1508735113       16.1944036544  MEMB      64              0.0000000000
      8492        70  POPS      HS            -27.9948809919      -33.8736590720       16.5473784494  MEMB      64              0.0000000000
      8493        70  POPS      O21           -28.2545149610      -32.4288905506       15.1142869047  MEMB      64              0.0000000000
      8494        70  POPS      C21           -27.1454588943      -31.6363607648       15.3158589336  MEMB      64              0.0000000000
      8495        70  POPS      O22           -26.4327060624      -31.6852207385       16.2796195386  MEMB      64              0.0000000000
      8496        70  POPS      C22           -26.9484458757      -30.6707408575       14.1396984123  MEMB      64              0.0000000000
      8497        70  POPS      H2R           -27.2581277821      -31.2196731533       13.2247713768  MEMB      64              0.0000000000
      8498        70  POPS      H2S           -25.8803885959      -30.3649525263       14.1314309391  MEMB      64              0.0000000000
      8499        70  POPS      C3            -30.0348289350      -33.9172148075       15.7187633772  MEMB      64              0.0000000000
      8500        70  POPS      HX            -30.8613084080      -33.1882753979       15.5776967792  MEMB      64              0.0000000000
      8501        70  POPS      HY            -30.3360240666      -34.5533206867       16.5783981393  MEMB      64              0.0000000000
      8502        70  POPS      O31           -29.9188600735      -34.6265324963       14.4855672000  MEMB      64              0.0000000000
      8503        70  POPS      C31           -30.5283957047      -34.1426560657       13.3764986859  MEMB      64              0.0000000000
      8504        70  POPS      O32           -31.2792822927      -33.1673331144       13.3034094420  MEMB      64              0.0000000000
      8505        70  POPS      C32           -29.9065462184      -34.8667780089       12.1977967213  MEMB      64              0.0000000000
      8506        70  POPS      H2X           -30.0279839051      -35.9673413463       12.2890873609  MEMB      64              0.0000000000
      8507        70  POPS      H2Y           -28.8208250449      -34.6334850665       12.1645568966  MEMB      64              0.0000000000
      8508        70  POPS      C23           -27.8693523108      -29.3509549826       14.2453794537  MEMB      64              0.0000000000
      8509        70  POPS      H3R           -27.1811298201      -28.5632723722       13.8709106152  MEMB      64              0.0000000000
      8510        70  POPS      H3S           -28.0500920214      -29.2195050785       15.3336693122  MEMB      64              0.0000000000
      8511        70  POPS      C24           -29.1658745220      -29.3418069287       13.4610470348  MEMB      64              0.0000000000
      8512        70  POPS      H4R           -29.8692348615      -28.5207873515       13.7170394589  MEMB      64              0.0000000000
      8513        70  POPS      H4S           -29.5894415944      -30.3453906600       13.6795230497  MEMB      64              0.0000000000
      8514        70  POPS      C25           -29.0521130147      -29.3910247252       11.9774835001  MEMB      64              0.0000000000
      8515        70  POPS      H5R           -28.3571899221      -30.1469722378       11.5532831531  MEMB      64              0.0000000000
      8516        70  POPS      H5S           -28.6278603143      -28.4861286638       11.4922066272  MEMB      64              0.0000000000
      8517        70  POPS      C26           -30.4679221727      -29.6356110381       11.3835469933  MEMB      64              0.0000000000
      8518        70  POPS      H6R           -31.0456365789      -28.7126962481       11.6044434808  MEMB      64              0.0000000000
      8519        70  POPS      H6S           -30.9641530840      -30.5084091240       11.8592560460  MEMB      64              0.0000000000
      8520        70  POPS      C27           -30.4640861454      -29.8858511907        9.8949450945  MEMB      64              0.0000000000
      8521        70  POPS      H7R           -29.5308037451      -30.4295952621        9.6348545285  MEMB      64              0.0000000000
      8522        70  POPS      H7S           -30.1991331029      -28.9546460885        9.3499880621  MEMB      64              0.0000000000
      8523        70  POPS      C28           -31.6119402255      -30.7355102499        9.3442464758  MEMB      64              0.0000000000
      8524        70  POPS      H8R           -32.5090248192      -30.0822140141        9.3968212386  MEMB      64              0.0000000000
      8525        70  POPS      H8S           -31.8040124822      -31.6811850948        9.8948169448  MEMB      64              0.0000000000
      8526        70  POPS      C29           -31.2587618073      -31.0694181426        7.8888457089  MEMB      64              0.0000000000
      8527        70  POPS      H91           -30.6159625252      -31.9611585685        7.8487400850  MEMB      64              0.0000000000
      8528        70  POPS      C210          -31.6375808918      -30.2604891759        6.8809795940  MEMB      64              0.0000000000
      8529        70  POPS      H101          -31.3109491907      -30.6161241657        5.8926301287  MEMB      64              0.0000000000
      8530        70  POPS      C211          -32.4116054493      -28.9619986949        6.9423435189  MEMB      64              0.0000000000
      8531        70  POPS      H11R          -32.5487026389      -28.5474008900        7.9639278895  MEMB      64              0.0000000000
      8532        70  POPS      H11S          -33.4109547789      -29.0675118125        6.4685405698  MEMB      64              0.0000000000
      8533        70  POPS      C212          -31.7337915636      -27.9027202982        6.0470995696  MEMB      64              0.0000000000
      8534        70  POPS      H12R          -30.7530244473      -27.6531421322        6.5054970989  MEMB      64              0.0000000000
      8535        70  POPS      H12S          -32.1672871776      -26.8994303682        6.2466291856  MEMB      64              0.0000000000
      8536        70  POPS      C213          -31.7363507796      -28.1144496876        4.5212002790  MEMB      64              0.0000000000
      8537        70  POPS      H13R          -32.7773681481      -28.3884857693        4.2464127612  MEMB      64              0.0000000000
      8538        70  POPS      H13S          -31.0548724181      -28.9607822326        4.2896202955  MEMB      64              0.0000000000
      8539        70  POPS      C214          -31.3206386747      -26.8965675768        3.6903952716  MEMB      64              0.0000000000
      8540        70  POPS      H14R          -30.3198966469      -26.6159442859        4.0829337156  MEMB      64              0.0000000000
      8541        70  POPS      H14S          -32.0343767065      -26.0625469106        3.8615925666  MEMB      64              0.0000000000
      8542        70  POPS      C215          -31.0992112407      -27.0736410094        2.1498919822  MEMB      64              0.0000000000
      8543        70  POPS      H15R          -30.1536801901      -27.5924460001        1.8831829298  MEMB      64              0.0000000000
      8544        70  POPS      H15S          -30.9089890589      -26.0748093199        1.7021504257  MEMB      64              0.0000000000
      8545        70  POPS      C216          -32.1662914688      -27.8751810962        1.4611860615  MEMB      64              0.0000000000
      8546        70  POPS      H16R          -32.6293034663      -27.4090642510        0.5652656936  MEMB      64              0.0000000000
      8547        70  POPS      H16S          -33.0199516294      -28.0652410797        2.1463596772  MEMB      64              0.0000000000
      8548        70  POPS      C217          -31.7335004341      -29.3680147515        1.1078976733  MEMB      64              0.0000000000
      8549        70  POPS      H17R          -31.2574281465      -29.7509472733        2.0358192686  MEMB      64              0.0000000000
      8550        70  POPS      H17S          -31.0927416131      -29.2455386155        0.2085930987  MEMB      64              0.0000000000
      8551        70  POPS      C218          -32.9117331118      -30.1866258671        0.6602901702  MEMB      64              0.0000000000
      8552        70  POPS      H18R          -32.4750037874      -31.1418393635        0.2981347362  MEMB      64              0.0000000000
      8553        70  POPS      H18S          -33.4236777501      -29.6377875411       -0.1588618391  MEMB      64              0.0000000000
      8554        70  POPS      H18T          -33.6034192900      -30.4276498444        1.4956328364  MEMB      64              0.0000000000
      8555        70  POPS      C33           -30.5852001443      -34.4263149476       10.8979675854  MEMB      64              0.0000000000
      8556        70  POPS      H3X           -30.4799881301      -33.3582120575       10.6109006539  MEMB      64              0.0000000000
      8557        70  POPS      H3Y           -31.6696190196      -34.6630981863       10.8501084368  MEMB      64              0.0000000000
      8558        70  POPS      C34           -30.0286952893      -35.2430231344        9.6829187687  MEMB      64              0.0000000000
      8559        70  POPS      H4X           -30.4906513044      -34.8364855436        8.7579076025  MEMB      64              0.0000000000
      8560        70  POPS      H4Y           -30.1744902929      -36.3362895902        9.8164579714  MEMB      64              0.0000000000
      8561        70  POPS      C35           -28.5313406574      -35.0279032770        9.3859780764  MEMB      64              0.0000000000
      8562        70  POPS      H5X           -28.2319594458      -35.7608975600        8.6066118887  MEMB      64              0.0000000000
      8563        70  POPS      H5Y           -27.9416500178      -35.3319830911       10.2771126464  MEMB      64              0.0000000000
      8564        70  POPS      C36           -28.3292021748      -33.6337147782        8.8039954900  MEMB      64              0.0000000000
      8565        70  POPS      H6X           -28.7205304488      -32.8850880077        9.5256189249  MEMB      64              0.0000000000
      8566        70  POPS      H6Y           -28.8404830916      -33.4882391698        7.8284189154  MEMB      64              0.0000000000
      8567        70  POPS      C37           -26.8354834519      -33.2541115549        8.6523334346  MEMB      64              0.0000000000
      8568        70  POPS      H7X           -26.3385370156      -33.9260929339        7.9203462912  MEMB      64              0.0000000000
      8569        70  POPS      H7Y           -26.3740769331      -33.5382684339        9.6222207352  MEMB      64              0.0000000000
      8570        70  POPS      C38           -26.5837208792      -31.7825563721        8.3405127984  MEMB      64              0.0000000000
      8571        70  POPS      H8X           -25.5887526203      -31.5576170373        8.7806968426  MEMB      64              0.0000000000
      8572        70  POPS      H8Y           -27.2776965815      -31.1182155586        8.8985183821  MEMB      64              0.0000000000
      8573        70  POPS      C39           -26.7691972990      -31.2417596017        6.9321113996  MEMB      64              0.0000000000
      8574        70  POPS      H9X           -25.8330211874      -31.3251469945        6.3397073301  MEMB      64              0.0000000000
      8575        70  POPS      H9Y           -26.9229084281      -30.1482229950        7.0540589273  MEMB      64              0.0000000000
      8576        70  POPS      C310          -27.8032615442      -31.8247968579        5.9255853232  MEMB      64              0.0000000000
      8577        70  POPS      H10X          -28.7560533769      -31.6272302075        6.4617533173  MEMB      64              0.0000000000
      8578        70  POPS      H10Y          -27.7658818623      -32.9263958184        5.7862880777  MEMB      64              0.0000000000
      8579        70  POPS      C311          -27.7058190843      -31.1608157241        4.5291721118  MEMB      64              0.0000000000
      8580        70  POPS      H11X          -26.7057266011      -31.2895087923        4.0627232830  MEMB      64              0.0000000000
      8581        70  POPS      H11Y          -27.7911979803      -30.1078165495        4.8730098085  MEMB      64              0.0000000000
      8582        70  POPS      C312          -28.9773923121      -31.4809909968        3.7475604807  MEMB      64              0.0000000000
      8583        70  POPS      H12X          -29.2077656231      -30.6520415735        3.0446436585  MEMB      64              0.0000000000
      8584        70  POPS      H12Y          -29.8752051582      -31.5004259716        4.4016827191  MEMB      64              0.0000000000
      8585        70  POPS      C313          -28.9458226135      -32.8636700611        3.0662948076  MEMB      64              0.0000000000
      8586        70  POPS      H13X          -28.9694794024      -33.4496764200        4.0098820681  MEMB      64              0.0000000000
      8587        70  POPS      H13Y          -27.9618873006      -33.0744132152        2.5953596978  MEMB      64              0.0000000000
      8588        70  POPS      C314          -30.1013918573      -33.2850573799        2.1506647010  MEMB      64              0.0000000000
      8589        70  POPS      H14X          -30.0586891670      -32.7159236139        1.1974674258  MEMB      64              0.0000000000
      8590        70  POPS      H14Y          -31.0181306085      -33.0314048625        2.7247461618  MEMB      64              0.0000000000
      8591        70  POPS      C315          -30.0653267806      -34.7449844078        1.7855509636  MEMB      64              0.0000000000
      8592        70  POPS      H15X          -30.4029679373      -35.4528020690        2.5725156022  MEMB      64              0.0000000000
      8593        70  POPS      H15Y          -28.9891054255      -34.9268683133        1.5782174182  MEMB      64              0.0000000000
      8594        70  POPS      C316          -30.7830931188      -35.2926335616        0.5684376398  MEMB      64              0.0000000000
      8595        70  POPS      H16X          -30.3969473033      -34.8091197677       -0.3542889087  MEMB      64              0.0000000000
      8596        70  POPS      H16Y          -31.8576387676      -35.0104967981        0.5769214542  MEMB      64              0.0000000000
      8597        70  POPS      H16Z          -30.7775513209      -36.4023351189        0.5150363194  MEMB      64              0.0000000000
      8598        71  POPC      N              29.7696300587       32.8389567389       20.8512887841  MEMB      65              0.0000000000
      8599        71  POPC      C12            28.8147700698       34.0216463226       20.8209344153  MEMB      65              0.0000000000
      8600        71  POPC      H12A           29.4691014592       34.8803201761       20.8514239809  MEMB      65              0.0000000000
      8601        71  POPC      H12B           28.3221169178       33.8886967545       21.7727836294  MEMB      65              0.0000000000
      8602        71  POPC      C13            30.4818448466       32.8729717633       22.1850710029  MEMB      65              0.0000000000
      8603        71  POPC      H13A           29.7733694578       32.4778240245       22.8980374370  MEMB      65              0.0000000000
      8604        71  POPC      H13B           31.3653320490       32.2527572823       22.2194883665  MEMB      65              0.0000000000
      8605        71  POPC      H13C           30.6772452988       33.8986864643       22.4609839866  MEMB      65              0.0000000000
      8606        71  POPC      C14            29.0882003064       31.5695504384       20.5688055751  MEMB      65              0.0000000000
      8607        71  POPC      H14A           28.6397369851       31.6514480064       19.5897380768  MEMB      65              0.0000000000
      8608        71  POPC      H14B           29.7815590303       30.7465224975       20.6597928340  MEMB      65              0.0000000000
      8609        71  POPC      H14C           28.2730201564       31.4205991539       21.2614056538  MEMB      65              0.0000000000
      8610        71  POPC      C15            30.7254516140       32.9178146157       19.6874636872  MEMB      65              0.0000000000
      8611        71  POPC      H15A           31.1489743298       33.9111948577       19.7024294369  MEMB      65              0.0000000000
      8612        71  POPC      H15B           30.1829563188       32.7856653877       18.7629986301  MEMB      65              0.0000000000
      8613        71  POPC      H15C           31.4605633584       32.1323922300       19.7829751811  MEMB      65              0.0000000000
      8614        71  POPC      C11            27.7284852966       34.1824092872       19.6623744761  MEMB      65              0.0000000000
      8615        71  POPC      H11A           27.3768129474       35.2345960652       19.7219594297  MEMB      65              0.0000000000
      8616        71  POPC      H11B           26.9462572078       33.4613827250       19.9826259368  MEMB      65              0.0000000000
      8617        71  POPC      P              27.4603707251       33.9544689648       17.0365951766  MEMB      65              0.0000000000
      8618        71  POPC      O13            26.1546861852       34.6439898190       17.2233721243  MEMB      65              0.0000000000
      8619        71  POPC      O14            27.5194266387       32.5954491912       16.5081363356  MEMB      65              0.0000000000
      8620        71  POPC      O12            28.2497318909       33.8928833231       18.4013136216  MEMB      65              0.0000000000
      8621        71  POPC      O11            28.2454850702       34.8509124186       16.0546447963  MEMB      65              0.0000000000
      8622        71  POPC      C1             28.9433223850       36.0023080160       16.5221073258  MEMB      65              0.0000000000
      8623        71  POPC      HA             29.3576954465       35.8735423346       17.5448660311  MEMB      65              0.0000000000
      8624        71  POPC      HB             28.2349062246       36.8575156472       16.5550849208  MEMB      65              0.0000000000
      8625        71  POPC      C2             29.9598034349       36.3369834330       15.4007097585  MEMB      65              0.0000000000
      8626        71  POPC      HS             30.3834616767       37.3574044664       15.5172245721  MEMB      65              0.0000000000
      8627        71  POPC      O21            29.2958990229       36.2924344815       14.1425417248  MEMB      65              0.0000000000
      8628        71  POPC      C21            28.7072310929       37.3679616142       13.7036480290  MEMB      65              0.0000000000
      8629        71  POPC      O22            28.7445817811       38.4864171000       14.2174067751  MEMB      65              0.0000000000
      8630        71  POPC      C22            27.7984580934       37.0831153196       12.5603877045  MEMB      65              0.0000000000
      8631        71  POPC      H2R            27.0845184603       37.8895767740       12.2879341989  MEMB      65              0.0000000000
      8632        71  POPC      H2S            27.2581241258       36.1160163400       12.6445283257  MEMB      65              0.0000000000
      8633        71  POPC      C3             31.1283783001       35.2688719723       15.5067558393  MEMB      65              0.0000000000
      8634        71  POPC      HX             30.5751982811       34.3057190472       15.4812694650  MEMB      65              0.0000000000
      8635        71  POPC      HY             31.6423628040       35.3731800164       16.4861744722  MEMB      65              0.0000000000
      8636        71  POPC      O31            32.0625154333       35.4192109498       14.4437352199  MEMB      65              0.0000000000
      8637        71  POPC      C31            31.9739336091       34.6542792787       13.3986577912  MEMB      65              0.0000000000
      8638        71  POPC      O32            31.1601641634       33.8534854893       13.0816638612  MEMB      65              0.0000000000
      8639        71  POPC      C32            33.0740078690       35.2477165514       12.4187879572  MEMB      65              0.0000000000
      8640        71  POPC      H2X            33.8473684316       35.7054690082       13.0720086179  MEMB      65              0.0000000000
      8641        71  POPC      H2Y            32.6505241369       36.0643619252       11.7958331198  MEMB      65              0.0000000000
      8642        71  POPC      C23            28.7819648093       36.8843303817       11.3639492195  MEMB      65              0.0000000000
      8643        71  POPC      H3R            29.5688883551       36.1536473789       11.6488612908  MEMB      65              0.0000000000
      8644        71  POPC      H3S            29.2492813780       37.8731742738       11.1686953074  MEMB      65              0.0000000000
      8645        71  POPC      C24            28.2110467784       36.2687766129       10.0220382277  MEMB      65              0.0000000000
      8646        71  POPC      H4R            27.4576893370       37.0111539562        9.6819655507  MEMB      65              0.0000000000
      8647        71  POPC      H4S            27.6137241431       35.3867307336       10.3375081702  MEMB      65              0.0000000000
      8648        71  POPC      C25            29.2235494451       35.9062460535        9.0343983249  MEMB      65              0.0000000000
      8649        71  POPC      H5R            28.6945043064       35.3112260575        8.2595549751  MEMB      65              0.0000000000
      8650        71  POPC      H5S            29.9810542222       35.2276467025        9.4816240547  MEMB      65              0.0000000000
      8651        71  POPC      C26            29.9731354257       37.1122696813        8.3497772611  MEMB      65              0.0000000000
      8652        71  POPC      H6R            30.6008785265       37.5148058743        9.1733214484  MEMB      65              0.0000000000
      8653        71  POPC      H6S            29.2869857054       37.9480393410        8.0948102591  MEMB      65              0.0000000000
      8654        71  POPC      C27            30.8234115550       36.6901859003        7.1713240034  MEMB      65              0.0000000000
      8655        71  POPC      H7R            30.2696882178       36.0188660594        6.4806426122  MEMB      65              0.0000000000
      8656        71  POPC      H7S            31.5801086390       36.1257869428        7.7571435709  MEMB      65              0.0000000000
      8657        71  POPC      C28            31.4303356801       37.8679449305        6.3013790472  MEMB      65              0.0000000000
      8658        71  POPC      H8R            31.6565602301       38.6547209108        7.0524627693  MEMB      65              0.0000000000
      8659        71  POPC      H8S            30.7140287121       38.4559625208        5.6886302542  MEMB      65              0.0000000000
      8660        71  POPC      C29            32.7013166039       37.6020348469        5.5106409176  MEMB      65              0.0000000000
      8661        71  POPC      H91            33.6474363094       38.1398819135        5.6705707612  MEMB      65              0.0000000000
      8662        71  POPC      C210           32.7722218865       36.7770144681        4.4115558924  MEMB      65              0.0000000000
      8663        71  POPC      H101           33.6861165762       36.8941673930        3.8106635583  MEMB      65              0.0000000000
      8664        71  POPC      C211           31.7372993331       35.9569061580        3.7141707765  MEMB      65              0.0000000000
      8665        71  POPC      H11R           31.6710379113       36.2130757454        2.6351397663  MEMB      65              0.0000000000
      8666        71  POPC      H11S           30.7095071881       36.1349709832        4.0966070043  MEMB      65              0.0000000000
      8667        71  POPC      C212           32.1311290707       34.4487972937        3.7938177136  MEMB      65              0.0000000000
      8668        71  POPC      H12R           32.5531591761       34.1170445465        4.7665213638  MEMB      65              0.0000000000
      8669        71  POPC      H12S           33.0020302464       34.4705234894        3.1043393750  MEMB      65              0.0000000000
      8670        71  POPC      C213           31.0902716139       33.4437558130        3.3653496000  MEMB      65              0.0000000000
      8671        71  POPC      H13R           30.5747593438       33.7752247530        2.4386913455  MEMB      65              0.0000000000
      8672        71  POPC      H13S           30.3379608519       33.3080202240        4.1715292745  MEMB      65              0.0000000000
      8673        71  POPC      C214           31.7058876378       32.0469165340        3.2281595211  MEMB      65              0.0000000000
      8674        71  POPC      H14R           31.2655717559       31.4317337159        4.0417887787  MEMB      65              0.0000000000
      8675        71  POPC      H14S           32.8006229500       32.0659027134        3.4166143910  MEMB      65              0.0000000000
      8676        71  POPC      C215           31.3951779977       31.4034097469        1.8182692725  MEMB      65              0.0000000000
      8677        71  POPC      H15R           30.3120030999       31.4762879689        1.5821715509  MEMB      65              0.0000000000
      8678        71  POPC      H15S           31.6489713646       30.3218592682        1.8308617781  MEMB      65              0.0000000000
      8679        71  POPC      C216           32.2104607469       31.8426975329        0.6057245909  MEMB      65              0.0000000000
      8680        71  POPC      H16R           31.9282955506       31.2717006724       -0.3045858313  MEMB      65              0.0000000000
      8681        71  POPC      H16S           33.2836103580       31.6543886377        0.8230048887  MEMB      65              0.0000000000
      8682        71  POPC      C217           32.2570639849       33.2703661898        0.1784783588  MEMB      65              0.0000000000
      8683        71  POPC      H17R           32.8918856415       33.8177866549        0.9076243252  MEMB      65              0.0000000000
      8684        71  POPC      H17S           31.2410728843       33.7125311225        0.0974036150  MEMB      65              0.0000000000
      8685        71  POPC      C218           32.9191449729       33.4924581759       -1.1199804267  MEMB      65              0.0000000000
      8686        71  POPC      H18R           32.6813307823       34.5637238704       -1.2936334994  MEMB      65              0.0000000000
      8687        71  POPC      H18S           32.3971912048       32.8677555741       -1.8760448040  MEMB      65              0.0000000000
      8688        71  POPC      H18T           34.0246351406       33.3823542892       -1.1104877762  MEMB      65              0.0000000000
      8689        71  POPC      C33            33.7100676699       34.0977635440       11.6164099106  MEMB      65              0.0000000000
      8690        71  POPC      H3X            33.9204297423       33.2464805480       12.2986023945  MEMB      65              0.0000000000
      8691        71  POPC      H3Y            34.6913543627       34.4667829718       11.2486858811  MEMB      65              0.0000000000
      8692        71  POPC      C34            33.0596986396       33.6346843233       10.2714123742  MEMB      65              0.0000000000
      8693        71  POPC      H4X            33.7830597084       33.9003637556        9.4711094556  MEMB      65              0.0000000000
      8694        71  POPC      H4Y            32.2063341813       34.3388407372       10.1701522384  MEMB      65              0.0000000000
      8695        71  POPC      C35            32.6241213955       32.1717342846       10.1685281737  MEMB      65              0.0000000000
      8696        71  POPC      H5X            31.8070720498       32.0460409002       10.9107902014  MEMB      65              0.0000000000
      8697        71  POPC      H5Y            33.4688112691       31.5070826353       10.4497009381  MEMB      65              0.0000000000
      8698        71  POPC      C36            32.0437165482       31.8593670592        8.7490096084  MEMB      65              0.0000000000
      8699        71  POPC      H6X            31.7299940170       30.8006936448        8.6260871724  MEMB      65              0.0000000000
      8700        71  POPC      H6Y            32.8835759813       31.9949411821        8.0344629760  MEMB      65              0.0000000000
      8701        71  POPC      C37            30.7260402887       32.6001400895        8.3874093173  MEMB      65              0.0000000000
      8702        71  POPC      H7X            31.0684425319       33.5959827242        8.0333203553  MEMB      65              0.0000000000
      8703        71  POPC      H7Y            30.1103924803       32.7821770043        9.2941408023  MEMB      65              0.0000000000
      8704        71  POPC      C38            29.9898015634       31.8470975467        7.1172721726  MEMB      65              0.0000000000
      8705        71  POPC      H8X            30.0280681159       30.7393089102        7.1925108850  MEMB      65              0.0000000000
      8706        71  POPC      H8Y            30.6228759068       32.0530613324        6.2278253675  MEMB      65              0.0000000000
      8707        71  POPC      C39            28.5168688189       32.3482931727        6.8735379576  MEMB      65              0.0000000000
      8708        71  POPC      H9X            28.4933712195       33.4561742768        6.7937360758  MEMB      65              0.0000000000
      8709        71  POPC      H9Y            27.9503580976       31.9301104128        7.7329037115  MEMB      65              0.0000000000
      8710        71  POPC      C310           27.9758887090       31.7023209771        5.6115182279  MEMB      65              0.0000000000
      8711        71  POPC      H10X           27.7680291094       30.6282440248        5.8051008782  MEMB      65              0.0000000000
      8712        71  POPC      H10Y           28.7445992103       31.8540332134        4.8238709144  MEMB      65              0.0000000000
      8713        71  POPC      C311           26.5746572017       32.2949579701        5.1930763428  MEMB      65              0.0000000000
      8714        71  POPC      H11X           26.5966931442       33.3775320069        4.9443418924  MEMB      65              0.0000000000
      8715        71  POPC      H11Y           25.8830200288       32.2388601196        6.0607234385  MEMB      65              0.0000000000
      8716        71  POPC      C312           26.0273991460       31.6684244999        3.9234475816  MEMB      65              0.0000000000
      8717        71  POPC      H12X           25.1097441983       32.1815605167        3.5643895833  MEMB      65              0.0000000000
      8718        71  POPC      H12Y           25.8213507766       30.6138014970        4.2056441459  MEMB      65              0.0000000000
      8719        71  POPC      C313           27.0704269927       31.6677419687        2.7557640201  MEMB      65              0.0000000000
      8720        71  POPC      H13X           26.5812505603       31.1856118497        1.8825068987  MEMB      65              0.0000000000
      8721        71  POPC      H13Y           27.9598080266       31.0139405860        2.8817232383  MEMB      65              0.0000000000
      8722        71  POPC      C314           27.4334620165       33.0619989437        2.2188552061  MEMB      65              0.0000000000
      8723        71  POPC      H14X           28.1954166459       32.8924106080        1.4282951407  MEMB      65              0.0000000000
      8724        71  POPC      H14Y           27.8730120672       33.6143259357        3.0767902236  MEMB      65              0.0000000000
      8725        71  POPC      C315           26.2774251318       33.8065492791        1.4824564779  MEMB      65              0.0000000000
      8726        71  POPC      H15X           25.3466992000       33.8831648438        2.0842891341  MEMB      65              0.0000000000
      8727        71  POPC      H15Y           25.9633230932       33.2246179403        0.5896986212  MEMB      65              0.0000000000
      8728        71  POPC      C316           26.5384555243       35.2575158499        1.0734766210  MEMB      65              0.0000000000
      8729        71  POPC      H16X           26.2457624945       35.9039711071        1.9283134585  MEMB      65              0.0000000000
      8730        71  POPC      H16Y           25.9017020713       35.6232713706        0.2397553094  MEMB      65              0.0000000000
      8731        71  POPC      H16Z           27.6183291188       35.3110378000        0.8178797318  MEMB      65              0.0000000000
      8732        72  POPC      N               6.6161226391        2.0696723652      -20.9623519429  MEMB      66              0.0000000000
      8733        72  POPC      C12             7.5835093350        1.6628489422      -19.8490826462  MEMB      66              0.0000000000
      8734        72  POPC      H12A            8.5871541398        2.0002708881      -20.0617880427  MEMB      66              0.0000000000
      8735        72  POPC      H12B            7.7514157350        0.5969542448      -19.8035230038  MEMB      66              0.0000000000
      8736        72  POPC      C13             6.6421342880        3.5502711744      -21.2453221421  MEMB      66              0.0000000000
      8737        72  POPC      H13A            7.6631203929        3.8440900305      -21.4393785763  MEMB      66              0.0000000000
      8738        72  POPC      H13B            5.9721595906        3.7323245183      -22.0726009642  MEMB      66              0.0000000000
      8739        72  POPC      H13C            6.1434199360        4.0091604172      -20.4044268389  MEMB      66              0.0000000000
      8740        72  POPC      C14             7.1201140063        1.4952808895      -22.2506149240  MEMB      66              0.0000000000
      8741        72  POPC      H14A            8.1340886831        1.8527089433      -22.3530863995  MEMB      66              0.0000000000
      8742        72  POPC      H14B            7.2540788507        0.4282022898      -22.1516356405  MEMB      66              0.0000000000
      8743        72  POPC      H14C            6.4794934861        1.6542094013      -23.1054525121  MEMB      66              0.0000000000
      8744        72  POPC      C15             5.2221462619        1.6188379398      -20.6485486831  MEMB      66              0.0000000000
      8745        72  POPC      H15A            4.9542800528        2.2667177942      -19.8270260401  MEMB      66              0.0000000000
      8746        72  POPC      H15B            5.2966450289        0.6239455260      -20.2349799510  MEMB      66              0.0000000000
      8747        72  POPC      H15C            4.6483384872        1.6896865087      -21.5607576114  MEMB      66              0.0000000000
      8748        72  POPC      C11             7.2115468269        2.0187018081      -18.3735752993  MEMB      66              0.0000000000
      8749        72  POPC      H11A            8.0463158390        1.6509333584      -17.7393607856  MEMB      66              0.0000000000
      8750        72  POPC      H11B            6.2612375619        1.4750438275      -18.1847122402  MEMB      66              0.0000000000
      8751        72  POPC      P               5.9896878898        4.0406149615      -17.1134952754  MEMB      66              0.0000000000
      8752        72  POPC      O13             5.0853299443        2.9424363209      -16.6208989100  MEMB      66              0.0000000000
      8753        72  POPC      O14             5.3234870560        5.2453675331      -17.7490815068  MEMB      66              0.0000000000
      8754        72  POPC      O12             6.9817958595        3.4123637248      -18.2525177361  MEMB      66              0.0000000000
      8755        72  POPC      O11             6.9459746747        4.5092327073      -15.9345109299  MEMB      66              0.0000000000
      8756        72  POPC      C1              8.1869553988        3.8989213201      -15.6252818497  MEMB      66              0.0000000000
      8757        72  POPC      HA              8.8271515139        4.5504616795      -14.9928537593  MEMB      66              0.0000000000
      8758        72  POPC      HB              8.7851639000        3.6754069307      -16.5344072743  MEMB      66              0.0000000000
      8759        72  POPC      C2              7.8043513771        2.6964801404      -14.7017249053  MEMB      66              0.0000000000
      8760        72  POPC      HS              7.3045906487        1.9113714858      -15.3084905431  MEMB      66              0.0000000000
      8761        72  POPC      O21             6.9513923493        3.1624633802      -13.6055598027  MEMB      66              0.0000000000
      8762        72  POPC      C21             5.9662185086        2.4924784095      -13.3362672779  MEMB      66              0.0000000000
      8763        72  POPC      O22             5.6821383610        1.3283843222      -13.6015843505  MEMB      66              0.0000000000
      8764        72  POPC      C22             4.9912748713        3.3276491177      -12.5157473298  MEMB      66              0.0000000000
      8765        72  POPC      H2R             4.1372704148        3.5415217143      -13.1934321485  MEMB      66              0.0000000000
      8766        72  POPC      H2S             5.2595266156        4.3360153270      -12.1342250763  MEMB      66              0.0000000000
      8767        72  POPC      C3              9.0755146589        2.0649514020      -14.1238202540  MEMB      66              0.0000000000
      8768        72  POPC      HX              9.6067681513        2.7947043096      -13.4760926589  MEMB      66              0.0000000000
      8769        72  POPC      HY              9.9014268186        1.8399523253      -14.8320331428  MEMB      66              0.0000000000
      8770        72  POPC      O31             8.8312152522        0.9050223077      -13.2185701681  MEMB      66              0.0000000000
      8771        72  POPC      C31             9.0276305250       -0.3285635520      -13.6142214223  MEMB      66              0.0000000000
      8772        72  POPC      O32             9.2928517222       -0.6941253085      -14.7581950593  MEMB      66              0.0000000000
      8773        72  POPC      C32             8.8705354230       -1.3436436544      -12.4527896307  MEMB      66              0.0000000000
      8774        72  POPC      H2X             9.8078219957       -1.9395608506      -12.4263710086  MEMB      66              0.0000000000
      8775        72  POPC      H2Y             8.0537245208       -2.0524093357      -12.7073330266  MEMB      66              0.0000000000
      8776        72  POPC      C23             4.5184895698        2.5482488127      -11.2665482973  MEMB      66              0.0000000000
      8777        72  POPC      H3R             4.4433080767        1.4718148385      -11.5310455469  MEMB      66              0.0000000000
      8778        72  POPC      H3S             3.4729819939        2.8498272272      -11.0423043549  MEMB      66              0.0000000000
      8779        72  POPC      C24             5.2595900281        2.6907941594       -9.9861441113  MEMB      66              0.0000000000
      8780        72  POPC      H4R             5.2334180642        3.7307722402       -9.5961675070  MEMB      66              0.0000000000
      8781        72  POPC      H4S             6.2876451627        2.3016340744      -10.1473200518  MEMB      66              0.0000000000
      8782        72  POPC      C25             4.8067453311        1.6639941625       -8.9173276784  MEMB      66              0.0000000000
      8783        72  POPC      H5R             4.3775787768        0.7444653206       -9.3696589312  MEMB      66              0.0000000000
      8784        72  POPC      H5S             3.9681943526        2.0910295062       -8.3267392208  MEMB      66              0.0000000000
      8785        72  POPC      C26             6.0116801586        1.1356404814       -7.9983732594  MEMB      66              0.0000000000
      8786        72  POPC      H6R             6.7660706424        0.6835316855       -8.6772056318  MEMB      66              0.0000000000
      8787        72  POPC      H6S             5.5697044938        0.3366241661       -7.3654821048  MEMB      66              0.0000000000
      8788        72  POPC      C27             6.4870041121        2.2389874750       -7.0720104015  MEMB      66              0.0000000000
      8789        72  POPC      H7R             5.6588328998        2.5175579859       -6.3858238927  MEMB      66              0.0000000000
      8790        72  POPC      H7S             6.6109418869        3.1588294915       -7.6826257337  MEMB      66              0.0000000000
      8791        72  POPC      C28             7.7281211968        1.9545528906       -6.1414169170  MEMB      66              0.0000000000
      8792        72  POPC      H8R             7.3958178616        1.1134118363       -5.4961439695  MEMB      66              0.0000000000
      8793        72  POPC      H8S             7.9326893539        2.7181473223       -5.3607784538  MEMB      66              0.0000000000
      8794        72  POPC      C29             8.9252564996        1.3915677764       -6.8341529230  MEMB      66              0.0000000000
      8795        72  POPC      H91             8.8231138269        0.8971626712       -7.8114612949  MEMB      66              0.0000000000
      8796        72  POPC      C210           10.1620761378        1.4552861153       -6.3486186229  MEMB      66              0.0000000000
      8797        72  POPC      H101           10.9271950451        0.9688168889       -6.9714670925  MEMB      66              0.0000000000
      8798        72  POPC      C211           10.5819701883        2.1128704312       -5.0628574551  MEMB      66              0.0000000000
      8799        72  POPC      H11R            9.7204004431        2.6041131085       -4.5621592224  MEMB      66              0.0000000000
      8800        72  POPC      H11S           11.3276527631        2.8759331740       -5.3727181908  MEMB      66              0.0000000000
      8801        72  POPC      C212           11.4615758772        1.2257391801       -4.1634140983  MEMB      66              0.0000000000
      8802        72  POPC      H12R           11.8704243163        1.8917099944       -3.3737015367  MEMB      66              0.0000000000
      8803        72  POPC      H12S           12.3678584747        0.8917598530       -4.7124410370  MEMB      66              0.0000000000
      8804        72  POPC      C213           10.7845263236       -0.0067278673       -3.5890803803  MEMB      66              0.0000000000
      8805        72  POPC      H13R           11.4913144744       -0.6620049147       -3.0364636152  MEMB      66              0.0000000000
      8806        72  POPC      H13S           10.2665192716       -0.5432765245       -4.4125511606  MEMB      66              0.0000000000
      8807        72  POPC      C214            9.5659725583        0.4333475035       -2.6646772772  MEMB      66              0.0000000000
      8808        72  POPC      H14R            9.0764637394        1.3802123259       -2.9779659164  MEMB      66              0.0000000000
      8809        72  POPC      H14S            9.9422318031        0.7471509769       -1.6675441802  MEMB      66              0.0000000000
      8810        72  POPC      C215            8.4650394247       -0.6584896771       -2.5411352471  MEMB      66              0.0000000000
      8811        72  POPC      H15R            8.9093932105       -1.6390817454       -2.2667104371  MEMB      66              0.0000000000
      8812        72  POPC      H15S            7.9303828973       -0.8116635955       -3.5029063687  MEMB      66              0.0000000000
      8813        72  POPC      C216            7.3132047319       -0.3414501349       -1.5948571526  MEMB      66              0.0000000000
      8814        72  POPC      H16R            7.7355633556        0.1776630766       -0.7080332779  MEMB      66              0.0000000000
      8815        72  POPC      H16S            6.7703969669       -1.2726455338       -1.3254953246  MEMB      66              0.0000000000
      8816        72  POPC      C217            6.1965301643        0.3374369170       -2.3526939302  MEMB      66              0.0000000000
      8817        72  POPC      H17R            6.0737493314       -0.3061914352       -3.2499056773  MEMB      66              0.0000000000
      8818        72  POPC      H17S            6.5886256599        1.3255815386       -2.6754195528  MEMB      66              0.0000000000
      8819        72  POPC      C218            4.8969190622        0.5409398987       -1.5796554225  MEMB      66              0.0000000000
      8820        72  POPC      H18R            4.5030102331       -0.4388424735       -1.2344268171  MEMB      66              0.0000000000
      8821        72  POPC      H18S            4.2279102282        1.1986576745       -2.1747648532  MEMB      66              0.0000000000
      8822        72  POPC      H18T            5.0217737323        1.1597186863       -0.6654103724  MEMB      66              0.0000000000
      8823        72  POPC      C33             8.6545973226       -0.7107427180      -11.0248488242  MEMB      66              0.0000000000
      8824        72  POPC      H3X             8.0147672767       -1.4087039934      -10.4436533878  MEMB      66              0.0000000000
      8825        72  POPC      H3Y             8.0421814085        0.2066160756      -11.1579679205  MEMB      66              0.0000000000
      8826        72  POPC      C34             9.9369315294       -0.2906943704      -10.2550376627  MEMB      66              0.0000000000
      8827        72  POPC      H4X            10.7351167595       -1.0625056509      -10.2941284721  MEMB      66              0.0000000000
      8828        72  POPC      H4Y             9.5736037800       -0.2584114409       -9.2056230452  MEMB      66              0.0000000000
      8829        72  POPC      C35            10.5308236157        1.0839095341      -10.7074584877  MEMB      66              0.0000000000
      8830        72  POPC      H5X            10.8314800169        0.9979966694      -11.7735480074  MEMB      66              0.0000000000
      8831        72  POPC      H5Y            11.4779614361        1.2900269755      -10.1645354771  MEMB      66              0.0000000000
      8832        72  POPC      C36             9.5592427668        2.2528374675      -10.5444883919  MEMB      66              0.0000000000
      8833        72  POPC      H6X             9.3657410654        2.2999205776       -9.4514831780  MEMB      66              0.0000000000
      8834        72  POPC      H6Y             8.5666817981        2.0326114079      -10.9924213715  MEMB      66              0.0000000000
      8835        72  POPC      C37            10.0940846099        3.6282892987      -10.8638491748  MEMB      66              0.0000000000
      8836        72  POPC      H7X            10.7275847459        3.4662073607      -11.7620295772  MEMB      66              0.0000000000
      8837        72  POPC      H7Y            10.7513200151        3.9995241450      -10.0486510553  MEMB      66              0.0000000000
      8838        72  POPC      C38             9.0976317095        4.7717192769      -11.1735948720  MEMB      66              0.0000000000
      8839        72  POPC      H8X             8.7936711038        4.6005128577      -12.2284018304  MEMB      66              0.0000000000
      8840        72  POPC      H8Y             9.6929829643        5.7046459097      -11.0759950272  MEMB      66              0.0000000000
      8841        72  POPC      C39             7.9231964595        4.9584182582      -10.2244662739  MEMB      66              0.0000000000
      8842        72  POPC      H9X             7.2866656369        4.0507310675      -10.1519861632  MEMB      66              0.0000000000
      8843        72  POPC      H9Y             7.2624865508        5.7638155229      -10.6106246726  MEMB      66              0.0000000000
      8844        72  POPC      C310            8.3219019850        5.3421549402       -8.7942347471  MEMB      66              0.0000000000
      8845        72  POPC      H10X            9.2081606238        6.0045272883       -8.8948800816  MEMB      66              0.0000000000
      8846        72  POPC      H10Y            8.6687235482        4.4444544533       -8.2391033156  MEMB      66              0.0000000000
      8847        72  POPC      C311            7.1742874249        6.0117509747       -8.0068608135  MEMB      66              0.0000000000
      8848        72  POPC      H11X            6.1575665966        5.5639069567       -8.0128168932  MEMB      66              0.0000000000
      8849        72  POPC      H11Y            7.0829309180        6.9253623791       -8.6323920626  MEMB      66              0.0000000000
      8850        72  POPC      C312            7.4148228973        6.4592377579       -6.5263358872  MEMB      66              0.0000000000
      8851        72  POPC      H12X            6.4943968354        6.9812011881       -6.1876761454  MEMB      66              0.0000000000
      8852        72  POPC      H12Y            8.2079830297        7.2242261111       -6.3848789872  MEMB      66              0.0000000000
      8853        72  POPC      C313            7.6380715678        5.3973411564       -5.4294061108  MEMB      66              0.0000000000
      8854        72  POPC      H13X            8.6112252130        4.9134586766       -5.6599497897  MEMB      66              0.0000000000
      8855        72  POPC      H13Y            6.8071910805        4.6803428316       -5.6022420171  MEMB      66              0.0000000000
      8856        72  POPC      C314            7.4529873021        6.0405540852       -4.0207956199  MEMB      66              0.0000000000
      8857        72  POPC      H14X            6.3702495909        6.2180672687       -3.8461843265  MEMB      66              0.0000000000
      8858        72  POPC      H14Y            8.0660169052        6.9646336554       -3.9530243892  MEMB      66              0.0000000000
      8859        72  POPC      C315            7.9060411183        5.1895506950       -2.8594658940  MEMB      66              0.0000000000
      8860        72  POPC      H15X            9.0050641263        5.0669799347       -2.7524814712  MEMB      66              0.0000000000
      8861        72  POPC      H15Y            7.5698871997        4.1321609389       -2.9164610517  MEMB      66              0.0000000000
      8862        72  POPC      C316            7.3915091970        5.8206874657       -1.5416944418  MEMB      66              0.0000000000
      8863        72  POPC      H16X            6.2854086545        5.7508670112       -1.6190772888  MEMB      66              0.0000000000
      8864        72  POPC      H16Y            7.7176184232        6.8680172681       -1.3654171764  MEMB      66              0.0000000000
      8865        72  POPC      H16Z            7.7932155404        5.2307330464       -0.6902797904  MEMB      66              0.0000000000
      8866        73  POPC      N               4.3646365373       -3.0883314003      -19.7866014076  MEMB      67              0.0000000000
      8867        73  POPC      C12             3.7326514347       -4.3053152332      -20.3810240871  MEMB      67              0.0000000000
      8868        73  POPC      H12A            3.8403791047       -4.1692209357      -21.4469850789  MEMB      67              0.0000000000
      8869        73  POPC      H12B            2.6702636723       -4.2057293834      -20.2142462516  MEMB      67              0.0000000000
      8870        73  POPC      C13             4.1215467648       -3.0986034135      -18.3004327844  MEMB      67              0.0000000000
      8871        73  POPC      H13A            4.5401678654       -2.2216767789      -17.8290984138  MEMB      67              0.0000000000
      8872        73  POPC      H13B            3.0435309610       -3.0908424171      -18.2354583903  MEMB      67              0.0000000000
      8873        73  POPC      H13C            4.5189980758       -4.0062038973      -17.8706727038  MEMB      67              0.0000000000
      8874        73  POPC      C14             5.7467384323       -3.2262865417      -19.9855144246  MEMB      67              0.0000000000
      8875        73  POPC      H14A            6.0750481208       -4.1806153089      -19.6009763718  MEMB      67              0.0000000000
      8876        73  POPC      H14B            5.9682329306       -3.0612009346      -21.0295865920  MEMB      67              0.0000000000
      8877        73  POPC      H14C            6.2289331046       -2.4062232619      -19.4742569359  MEMB      67              0.0000000000
      8878        73  POPC      C15             3.9049879601       -1.7047740924      -20.2710552820  MEMB      67              0.0000000000
      8879        73  POPC      H15A            4.0776647114       -1.7181324312      -21.3370779779  MEMB      67              0.0000000000
      8880        73  POPC      H15B            4.4387433955       -0.8947875699      -19.7962636577  MEMB      67              0.0000000000
      8881        73  POPC      H15C            2.8877818185       -1.5287718283      -19.9536998067  MEMB      67              0.0000000000
      8882        73  POPC      C11             4.2149136157       -5.7586519569      -20.0783310072  MEMB      67              0.0000000000
      8883        73  POPC      H11A            5.3185818104       -5.8592905337      -20.1564937920  MEMB      67              0.0000000000
      8884        73  POPC      H11B            3.7753732883       -6.4546427993      -20.8244691278  MEMB      67              0.0000000000
      8885        73  POPC      P               4.1652057271       -7.3982166806      -18.0204809088  MEMB      67              0.0000000000
      8886        73  POPC      O13             3.9436588329       -8.6509956576      -18.7772161429  MEMB      67              0.0000000000
      8887        73  POPC      O14             3.4559972939       -7.2670972682      -16.7465181443  MEMB      67              0.0000000000
      8888        73  POPC      O12             3.6918334516       -6.1999283439      -18.8480191501  MEMB      67              0.0000000000
      8889        73  POPC      O11             5.7135085100       -7.1884121575      -17.8048066664  MEMB      67              0.0000000000
      8890        73  POPC      C1              6.1609461137       -5.9588278163      -17.2477634248  MEMB      67              0.0000000000
      8891        73  POPC      HA              5.3157432626       -5.2986015374      -16.9578419648  MEMB      67              0.0000000000
      8892        73  POPC      HB              6.7909085626       -5.4094041562      -17.9796117409  MEMB      67              0.0000000000
      8893        73  POPC      C2              6.9076782113       -6.0915641196      -15.8462528539  MEMB      67              0.0000000000
      8894        73  POPC      HS              7.8648291610       -6.6301866341      -16.0137914516  MEMB      67              0.0000000000
      8895        73  POPC      O21             6.0218898184       -6.7248140170      -14.8840558661  MEMB      67              0.0000000000
      8896        73  POPC      C21             5.9335158567       -8.0913132478      -14.9257102734  MEMB      67              0.0000000000
      8897        73  POPC      O22             6.6785231164       -8.8322804535      -15.5475271210  MEMB      67              0.0000000000
      8898        73  POPC      C22             4.8247210071       -8.5487054513      -13.9743683543  MEMB      67              0.0000000000
      8899        73  POPC      H2R             4.1107873696       -8.8836065770      -14.7569671987  MEMB      67              0.0000000000
      8900        73  POPC      H2S             4.3370699484       -7.7306562957      -13.4022557891  MEMB      67              0.0000000000
      8901        73  POPC      C3              7.2895600309       -4.6801116563      -15.3483973194  MEMB      67              0.0000000000
      8902        73  POPC      HX              7.6422373221       -4.1299842508      -16.2468959086  MEMB      67              0.0000000000
      8903        73  POPC      HY              8.1908755196       -4.7350964748      -14.7011506928  MEMB      67              0.0000000000
      8904        73  POPC      O31             6.0766411348       -4.1059606912      -14.8278871805  MEMB      67              0.0000000000
      8905        73  POPC      C31             6.1358170791       -3.7719706531      -13.6026102804  MEMB      67              0.0000000000
      8906        73  POPC      O32             7.0748155716       -3.9859447865      -12.8291356381  MEMB      67              0.0000000000
      8907        73  POPC      C32             4.7583321876       -3.2249110978      -13.2307789321  MEMB      67              0.0000000000
      8908        73  POPC      H2X             3.9464382742       -3.9637352188      -13.4019163484  MEMB      67              0.0000000000
      8909        73  POPC      H2Y             4.5172296329       -2.3524897130      -13.8750391622  MEMB      67              0.0000000000
      8910        73  POPC      C23             5.2251005792       -9.7999177471      -13.2247670396  MEMB      67              0.0000000000
      8911        73  POPC      H3R             6.1451619138      -10.2062302119      -13.6966975267  MEMB      67              0.0000000000
      8912        73  POPC      H3S             4.3840499223      -10.5256725564      -13.2400987559  MEMB      67              0.0000000000
      8913        73  POPC      C24             5.4200731761       -9.5800498274      -11.6877260591  MEMB      67              0.0000000000
      8914        73  POPC      H4R             5.6879772712      -10.5361246567      -11.1892588351  MEMB      67              0.0000000000
      8915        73  POPC      H4S             4.5006839951       -9.3222140704      -11.1197780433  MEMB      67              0.0000000000
      8916        73  POPC      C25             6.6180293420       -8.5975769980      -11.3524199877  MEMB      67              0.0000000000
      8917        73  POPC      H5R             6.4105136469       -7.5416047078      -11.6284289083  MEMB      67              0.0000000000
      8918        73  POPC      H5S             7.5511002858       -8.8380896880      -11.9054600785  MEMB      67              0.0000000000
      8919        73  POPC      C26             7.0361350011       -8.5627314153       -9.8613324766  MEMB      67              0.0000000000
      8920        73  POPC      H6R             7.3672076863       -9.5774320683       -9.5529580559  MEMB      67              0.0000000000
      8921        73  POPC      H6S             6.1151544036       -8.4720131440       -9.2466086317  MEMB      67              0.0000000000
      8922        73  POPC      C27             8.1173061077       -7.4736207173       -9.5551896495  MEMB      67              0.0000000000
      8923        73  POPC      H7R             8.0057377625       -6.7412987763      -10.3831869661  MEMB      67              0.0000000000
      8924        73  POPC      H7S             9.0810652685       -8.0207801723       -9.6333267001  MEMB      67              0.0000000000
      8925        73  POPC      C28             8.0675307029       -6.7558180043       -8.1754278873  MEMB      67              0.0000000000
      8926        73  POPC      H8R             7.7257751914       -7.4416011661       -7.3709252890  MEMB      67              0.0000000000
      8927        73  POPC      H8S             7.4075447737       -5.8638968558       -8.2321376377  MEMB      67              0.0000000000
      8928        73  POPC      C29             9.4514677448       -6.2394094178       -7.8129414537  MEMB      67              0.0000000000
      8929        73  POPC      H91            10.0988871593       -6.1256639005       -8.6949334199  MEMB      67              0.0000000000
      8930        73  POPC      C210            9.9571847580       -5.9728801305       -6.5777030214  MEMB      67              0.0000000000
      8931        73  POPC      H101           10.9225691295       -5.4977136012       -6.3491228343  MEMB      67              0.0000000000
      8932        73  POPC      C211            9.1634208778       -6.1227485659       -5.3212294938  MEMB      67              0.0000000000
      8933        73  POPC      H11R            9.7723758914       -6.4852435437       -4.4656056340  MEMB      67              0.0000000000
      8934        73  POPC      H11S            8.5433331518       -7.0161387225       -5.5485311052  MEMB      67              0.0000000000
      8935        73  POPC      C212            8.2647400111       -5.0344632735       -4.7999825804  MEMB      67              0.0000000000
      8936        73  POPC      H12R            7.2619487121       -5.2208259035       -5.2404358105  MEMB      67              0.0000000000
      8937        73  POPC      H12S            8.6412157993       -4.0215812502       -5.0581622029  MEMB      67              0.0000000000
      8938        73  POPC      C213            8.0658919731       -4.8511594454       -3.3342451729  MEMB      67              0.0000000000
      8939        73  POPC      H13R            7.7672152613       -5.7943662938       -2.8288005306  MEMB      67              0.0000000000
      8940        73  POPC      H13S            7.2574701258       -4.1189393479       -3.1229900215  MEMB      67              0.0000000000
      8941        73  POPC      C214            9.3816880330       -4.4023889909       -2.6124948012  MEMB      67              0.0000000000
      8942        73  POPC      H14R           10.0326060858       -3.8681225480       -3.3371912171  MEMB      67              0.0000000000
      8943        73  POPC      H14S            9.9437853263       -5.2915709318       -2.2551111751  MEMB      67              0.0000000000
      8944        73  POPC      C215            9.2304067594       -3.3708970368       -1.4326464845  MEMB      67              0.0000000000
      8945        73  POPC      H15R            8.5166712227       -2.5742658635       -1.7331152860  MEMB      67              0.0000000000
      8946        73  POPC      H15S           10.1453212469       -2.7630523657       -1.2659800960  MEMB      67              0.0000000000
      8947        73  POPC      C216            8.7311366851       -3.9865741341       -0.0706440850  MEMB      67              0.0000000000
      8948        73  POPC      H16R            9.5529249755       -4.6737859138        0.2238472519  MEMB      67              0.0000000000
      8949        73  POPC      H16S            7.8702922073       -4.6734216303       -0.2172994658  MEMB      67              0.0000000000
      8950        73  POPC      C217            8.5398747996       -3.1505970205        1.2065297490  MEMB      67              0.0000000000
      8951        73  POPC      H17R            9.5813272367       -3.0655927252        1.5839842603  MEMB      67              0.0000000000
      8952        73  POPC      H17S            7.9126029546       -3.7022379555        1.9390213958  MEMB      67              0.0000000000
      8953        73  POPC      C218            7.9030542337       -1.7788785532        1.1333705937  MEMB      67              0.0000000000
      8954        73  POPC      H18R            8.3137341467       -1.1848239042        0.2891180026  MEMB      67              0.0000000000
      8955        73  POPC      H18S            8.0458232326       -1.1227959723        2.0185228803  MEMB      67              0.0000000000
      8956        73  POPC      H18T            6.8135430090       -1.9491743932        0.9981475699  MEMB      67              0.0000000000
      8957        73  POPC      C33             4.7202287256       -2.7629033547      -11.8121835300  MEMB      67              0.0000000000
      8958        73  POPC      H3X             3.7180099769       -2.3431151673      -11.5805449551  MEMB      67              0.0000000000
      8959        73  POPC      H3Y             5.4485509842       -1.9332117045      -11.6877669131  MEMB      67              0.0000000000
      8960        73  POPC      C34             4.8680664596       -3.9108131214      -10.7841571059  MEMB      67              0.0000000000
      8961        73  POPC      H4X             5.0480942212       -3.3535180058       -9.8400531135  MEMB      67              0.0000000000
      8962        73  POPC      H4Y             5.7812893422       -4.5398087255      -10.8527821690  MEMB      67              0.0000000000
      8963        73  POPC      C35             3.6879247837       -4.8888114784      -10.8006772409  MEMB      67              0.0000000000
      8964        73  POPC      H5X             3.5622066584       -5.5911127575      -11.6523164088  MEMB      67              0.0000000000
      8965        73  POPC      H5Y             2.7130238644       -4.3674317742      -10.9104614640  MEMB      67              0.0000000000
      8966        73  POPC      C36             3.7571659837       -5.8110361437       -9.5401519739  MEMB      67              0.0000000000
      8967        73  POPC      H6X             4.0798501894       -5.1652579698       -8.6956604942  MEMB      67              0.0000000000
      8968        73  POPC      H6Y             4.5370419861       -6.5832337239       -9.7128520944  MEMB      67              0.0000000000
      8969        73  POPC      C37             2.3852029024       -6.3415198646       -9.1419209943  MEMB      67              0.0000000000
      8970        73  POPC      H7X             1.8058100518       -6.5529727331      -10.0659946960  MEMB      67              0.0000000000
      8971        73  POPC      H7Y             1.9578732224       -5.5203641728       -8.5275801093  MEMB      67              0.0000000000
      8972        73  POPC      C38             2.2803248339       -7.6229836233       -8.2234165592  MEMB      67              0.0000000000
      8973        73  POPC      H8X             2.6563842765       -8.4683677570       -8.8384177273  MEMB      67              0.0000000000
      8974        73  POPC      H8Y             1.2345212308       -7.9233570542       -7.9989355491  MEMB      67              0.0000000000
      8975        73  POPC      C39             3.1336304486       -7.4606402984       -6.9753988583  MEMB      67              0.0000000000
      8976        73  POPC      H9X             4.2223033722       -7.5509986883       -7.1777541148  MEMB      67              0.0000000000
      8977        73  POPC      H9Y             2.9363099319       -8.4176382033       -6.4466824120  MEMB      67              0.0000000000
      8978        73  POPC      C310            2.8931846549       -6.2057480654       -6.0805330555  MEMB      67              0.0000000000
      8979        73  POPC      H10X            1.8611884962       -6.2940617510       -5.6786552925  MEMB      67              0.0000000000
      8980        73  POPC      H10Y            3.0617756466       -5.2482979318       -6.6182944444  MEMB      67              0.0000000000
      8981        73  POPC      C311            3.9374416670       -6.1509367518       -4.9365283567  MEMB      67              0.0000000000
      8982        73  POPC      H11X            4.9594343273       -5.9228650913       -5.3077902975  MEMB      67              0.0000000000
      8983        73  POPC      H11Y            3.8835497505       -7.1578484287       -4.4701106229  MEMB      67              0.0000000000
      8984        73  POPC      C312            3.7521960917       -5.1425638579       -3.7621303563  MEMB      67              0.0000000000
      8985        73  POPC      H12X            3.3794120409       -4.2206012456       -4.2574465214  MEMB      67              0.0000000000
      8986        73  POPC      H12Y            4.7244914746       -4.9387289716       -3.2647234512  MEMB      67              0.0000000000
      8987        73  POPC      C313            2.7349884996       -5.5301098234       -2.7026058616  MEMB      67              0.0000000000
      8988        73  POPC      H13X            2.9831519188       -6.3940093492       -2.0496028134  MEMB      67              0.0000000000
      8989        73  POPC      H13Y            1.7594979082       -5.7467397774       -3.1882092960  MEMB      67              0.0000000000
      8990        73  POPC      C314            2.4293791216       -4.3921802467       -1.7706020539  MEMB      67              0.0000000000
      8991        73  POPC      H14X            1.5164698128       -4.6401180293       -1.1879835494  MEMB      67              0.0000000000
      8992        73  POPC      H14Y            2.0999470775       -3.5698213355       -2.4410661567  MEMB      67              0.0000000000
      8993        73  POPC      C315            3.6010531470       -4.0420986611       -0.7706921290  MEMB      67              0.0000000000
      8994        73  POPC      H15X            4.6201311903       -4.1048807155       -1.2087095219  MEMB      67              0.0000000000
      8995        73  POPC      H15Y            3.7091038511       -4.8100334261        0.0248730222  MEMB      67              0.0000000000
      8996        73  POPC      C316            3.4045588022       -2.7213481265       -0.0110282352  MEMB      67              0.0000000000
      8997        73  POPC      H16X            2.7642519242       -2.8035139592        0.8931710395  MEMB      67              0.0000000000
      8998        73  POPC      H16Y            2.8748465933       -1.9283786937       -0.5810510570  MEMB      67              0.0000000000
      8999        73  POPC      H16Z            4.4254140420       -2.3976370241        0.2845837322  MEMB      67              0.0000000000
      9000        74  POPS      N              -1.1377283101        6.5642893454      -20.1241229165  MEMB      68              0.0000000000
      9001        74  POPS      HN1            -0.6652064581        5.8084463396      -19.5883764654  MEMB      68              0.0000000000
      9002        74  POPS      HN2            -2.0262825222        6.8762579059      -19.6828213585  MEMB      68              0.0000000000
      9003        74  POPS      HN3            -1.3757097206        6.0662918318      -21.0055781734  MEMB      68              0.0000000000
      9004        74  POPS      C12            -0.0486783648        7.5457496318      -20.4148352728  MEMB      68              0.0000000000
      9005        74  POPS      H12A           -0.3811105741        8.3944137755      -20.9941952486  MEMB      68              0.0000000000
      9006        74  POPS      C13             1.1272477518        6.8545432387      -21.1104643968  MEMB      68              0.0000000000
      9007        74  POPS      O13A            1.0708849973        5.6636083110      -21.4447385464  MEMB      68              0.0000000000
      9008        74  POPS      O13B            2.1259415664        7.5372424810      -21.3396294933  MEMB      68              0.0000000000
      9009        74  POPS      C11             0.3812811191        8.1540306409      -19.0522515212  MEMB      68              0.0000000000
      9010        74  POPS      H11A            1.1980020899        8.8826301322      -19.2431197229  MEMB      68              0.0000000000
      9011        74  POPS      H11B            0.7519621875        7.3327954241      -18.4022598295  MEMB      68              0.0000000000
      9012        74  POPS      P              -0.5435044751        9.4923617621      -17.0725023457  MEMB      68              0.0000000000
      9013        74  POPS      O13            -1.3959927148       10.6503395540      -17.1865607752  MEMB      68              0.0000000000
      9014        74  POPS      O14             0.9035305582        9.7773938579      -16.8361872313  MEMB      68              0.0000000000
      9015        74  POPS      O12            -0.7308306124        8.8378095294      -18.4531852958  MEMB      68              0.0000000000
      9016        74  POPS      O11            -1.1558427754        8.4787033061      -15.9655221746  MEMB      68              0.0000000000
      9017        74  POPS      C1             -2.5972096998        8.1328966751      -16.0387762174  MEMB      68              0.0000000000
      9018        74  POPS      HA             -2.7606921133        7.5700864922      -16.9826189954  MEMB      68              0.0000000000
      9019        74  POPS      HB             -3.2337477763        9.0339395414      -16.1701609265  MEMB      68              0.0000000000
      9020        74  POPS      C2             -2.9275244534        7.3895001139      -14.7470530857  MEMB      68              0.0000000000
      9021        74  POPS      HS             -4.0307487122        7.2760610766      -14.6811059128  MEMB      68              0.0000000000
      9022        74  POPS      O21            -2.3813057240        8.1767307306      -13.6498436247  MEMB      68              0.0000000000
      9023        74  POPS      C21            -3.0599674322        9.3337084728      -13.4171625899  MEMB      68              0.0000000000
      9024        74  POPS      O22            -4.0786480252        9.6643659359      -14.0505929257  MEMB      68              0.0000000000
      9025        74  POPS      C22            -2.5836559620        9.9903349673      -12.1367185878  MEMB      68              0.0000000000
      9026        74  POPS      H2R            -2.5772675293       11.1007702682      -12.1715534808  MEMB      68              0.0000000000
      9027        74  POPS      H2S            -1.5113157627        9.7012583662      -12.1076954847  MEMB      68              0.0000000000
      9028        74  POPS      C3             -2.3486988965        5.9884326046      -14.5353561803  MEMB      68              0.0000000000
      9029        74  POPS      HX             -2.8189951802        5.3563137724      -15.3186617304  MEMB      68              0.0000000000
      9030        74  POPS      HY             -2.6982611219        5.5884366337      -13.5595843381  MEMB      68              0.0000000000
      9031        74  POPS      O31            -0.8789151024        6.0149644620      -14.6403737295  MEMB      68              0.0000000000
      9032        74  POPS      C31            -0.2626357757        5.2101882741      -13.8619622488  MEMB      68              0.0000000000
      9033        74  POPS      O32            -0.6870922445        4.1873526298      -13.2818792818  MEMB      68              0.0000000000
      9034        74  POPS      C32             1.2131505785        5.6781366335      -13.7311955756  MEMB      68              0.0000000000
      9035        74  POPS      H2X             1.7048506870        5.4988769541      -14.7112044261  MEMB      68              0.0000000000
      9036        74  POPS      H2Y             1.7205094152        5.0041318749      -13.0082668866  MEMB      68              0.0000000000
      9037        74  POPS      C23            -3.4461930695        9.5339855544      -10.9546388247  MEMB      68              0.0000000000
      9038        74  POPS      H3R            -4.5047124839        9.8312834095      -11.1142362228  MEMB      68              0.0000000000
      9039        74  POPS      H3S            -3.0034670678       10.0321102694      -10.0657150571  MEMB      68              0.0000000000
      9040        74  POPS      C24            -3.4253281790        8.0316683164      -10.6031988756  MEMB      68              0.0000000000
      9041        74  POPS      H4R            -3.8278446451        7.4216674907      -11.4399782908  MEMB      68              0.0000000000
      9042        74  POPS      H4S            -4.1587432102        8.0443812598       -9.7687749417  MEMB      68              0.0000000000
      9043        74  POPS      C25            -1.9924039096        7.5084685683      -10.0858855710  MEMB      68              0.0000000000
      9044        74  POPS      H5R            -1.5436081683        8.2772990395       -9.4212028332  MEMB      68              0.0000000000
      9045        74  POPS      H5S            -1.3258954644        7.2673426482      -10.9414235951  MEMB      68              0.0000000000
      9046        74  POPS      C26            -2.1241005125        6.1311046152       -9.3861355363  MEMB      68              0.0000000000
      9047        74  POPS      H6R            -1.2498973437        5.4797754677       -9.6002858448  MEMB      68              0.0000000000
      9048        74  POPS      H6S            -3.0238822700        5.6408445332       -9.8155061678  MEMB      68              0.0000000000
      9049        74  POPS      C27            -2.2923613263        6.3850477593       -7.8265172542  MEMB      68              0.0000000000
      9050        74  POPS      H7R            -2.9881446741        7.2050305578       -7.5475286269  MEMB      68              0.0000000000
      9051        74  POPS      H7S            -1.2972952906        6.8018961314       -7.5611833429  MEMB      68              0.0000000000
      9052        74  POPS      C28            -2.5735930610        5.0597565097       -6.9793710449  MEMB      68              0.0000000000
      9053        74  POPS      H8R            -2.2739258210        5.3262867014       -5.9432811297  MEMB      68              0.0000000000
      9054        74  POPS      H8S            -1.9422884989        4.2567598302       -7.4163734969  MEMB      68              0.0000000000
      9055        74  POPS      C29            -4.0479415515        4.6765554269       -7.0393334860  MEMB      68              0.0000000000
      9056        74  POPS      H91            -4.4346141924        4.8475169094       -8.0548420552  MEMB      68              0.0000000000
      9057        74  POPS      C210           -4.8315521397        4.2237750781       -6.0004441176  MEMB      68              0.0000000000
      9058        74  POPS      H101           -5.9213178603        4.1139933326       -6.1022199734  MEMB      68              0.0000000000
      9059        74  POPS      C211           -4.4096796270        3.9554318064       -4.5942528289  MEMB      68              0.0000000000
      9060        74  POPS      H11R           -3.3333599623        4.2095481153       -4.4880374837  MEMB      68              0.0000000000
      9061        74  POPS      H11S           -4.4551212579        2.8836548055       -4.3052023463  MEMB      68              0.0000000000
      9062        74  POPS      C212           -5.3294278948        4.5696291594       -3.4773187415  MEMB      68              0.0000000000
      9063        74  POPS      H12R           -6.2190736385        3.9064664009       -3.4219438230  MEMB      68              0.0000000000
      9064        74  POPS      H12S           -5.7780720957        5.4893751058       -3.9098769296  MEMB      68              0.0000000000
      9065        74  POPS      C213           -4.6721597269        4.9642171142       -2.1585492479  MEMB      68              0.0000000000
      9066        74  POPS      H13R           -4.0141414587        4.1593190996       -1.7667950140  MEMB      68              0.0000000000
      9067        74  POPS      H13S           -5.4772238500        5.0715338376       -1.4004766206  MEMB      68              0.0000000000
      9068        74  POPS      C214           -3.9464838505        6.2761363268       -2.4159951147  MEMB      68              0.0000000000
      9069        74  POPS      H14R           -4.7737868119        7.0020682574       -2.5673669900  MEMB      68              0.0000000000
      9070        74  POPS      H14S           -3.2946470158        6.2384782381       -3.3148885801  MEMB      68              0.0000000000
      9071        74  POPS      C215           -3.2917841310        6.7607444808       -1.1027305375  MEMB      68              0.0000000000
      9072        74  POPS      H15R           -3.8191685988        6.2290459056       -0.2820691760  MEMB      68              0.0000000000
      9073        74  POPS      H15S           -3.4564199340        7.8481988933       -0.9456981241  MEMB      68              0.0000000000
      9074        74  POPS      C216           -1.7204299462        6.5603329648       -0.9942879410  MEMB      68              0.0000000000
      9075        74  POPS      H16R           -1.2614625707        7.4977107982       -1.3750674142  MEMB      68              0.0000000000
      9076        74  POPS      H16S           -1.3975592979        5.7108919821       -1.6334482034  MEMB      68              0.0000000000
      9077        74  POPS      C217           -1.2794768817        6.4793058295        0.4734027725  MEMB      68              0.0000000000
      9078        74  POPS      H17R           -1.6503169617        5.5615369522        0.9778815658  MEMB      68              0.0000000000
      9079        74  POPS      H17S           -1.6222027134        7.3496967099        1.0728023096  MEMB      68              0.0000000000
      9080        74  POPS      C218            0.2758969596        6.4267069299        0.4860671944  MEMB      68              0.0000000000
      9081        74  POPS      H18R            0.6720051675        7.2373371179       -0.1622366315  MEMB      68              0.0000000000
      9082        74  POPS      H18S            0.6705796733        5.5210246970       -0.0221518261  MEMB      68              0.0000000000
      9083        74  POPS      H18T            0.6494804918        6.4912107747        1.5303836384  MEMB      68              0.0000000000
      9084        74  POPS      C33             1.5150070750        7.1250343341      -13.2844145909  MEMB      68              0.0000000000
      9085        74  POPS      H3X             0.9431469830        7.2330475837      -12.3380368287  MEMB      68              0.0000000000
      9086        74  POPS      H3Y             0.9726569003        7.8289423706      -13.9512655806  MEMB      68              0.0000000000
      9087        74  POPS      C34             3.0398119408        7.4833751709      -13.1458972055  MEMB      68              0.0000000000
      9088        74  POPS      H4X             3.4351955070        7.3810385883      -14.1791058032  MEMB      68              0.0000000000
      9089        74  POPS      H4Y             3.6233618639        6.7950203455      -12.4978553817  MEMB      68              0.0000000000
      9090        74  POPS      C35             3.2769161302        8.9334993057      -12.6251473882  MEMB      68              0.0000000000
      9091        74  POPS      H5X             2.6227328763        9.5097963697      -13.3138031829  MEMB      68              0.0000000000
      9092        74  POPS      H5Y             4.3451458967        9.1673227371      -12.8214463887  MEMB      68              0.0000000000
      9093        74  POPS      C36             2.7327236964        9.2552268568      -11.2091521906  MEMB      68              0.0000000000
      9094        74  POPS      H6X             3.1438070729        8.5330011778      -10.4717772517  MEMB      68              0.0000000000
      9095        74  POPS      H6Y             1.6288199729        9.1301007459      -11.2169527000  MEMB      68              0.0000000000
      9096        74  POPS      C37             2.9272928277       10.7254777583      -10.7169330017  MEMB      68              0.0000000000
      9097        74  POPS      H7X             2.4278558512       11.4405141792      -11.4051242609  MEMB      68              0.0000000000
      9098        74  POPS      H7Y             4.0060015637       10.9709880093      -10.8190726702  MEMB      68              0.0000000000
      9099        74  POPS      C38             2.4659677962       10.9097157479       -9.2849822372  MEMB      68              0.0000000000
      9100        74  POPS      H8X             2.7745667391       11.9462113346       -9.0304937063  MEMB      68              0.0000000000
      9101        74  POPS      H8Y             3.0359743704       10.1528002267       -8.7049022937  MEMB      68              0.0000000000
      9102        74  POPS      C39             0.9893979330       10.6801123205       -9.1192265941  MEMB      68              0.0000000000
      9103        74  POPS      H9X             0.7532523460        9.6164597216       -9.3364805949  MEMB      68              0.0000000000
      9104        74  POPS      H9Y             0.5398156876       11.1368827628      -10.0267278062  MEMB      68              0.0000000000
      9105        74  POPS      C310            0.4535184919       11.2037049003       -7.8413051260  MEMB      68              0.0000000000
      9106        74  POPS      H10X           -0.6296799346       10.9897174882       -7.7179696161  MEMB      68              0.0000000000
      9107        74  POPS      H10Y            0.6563171372       12.2890541482       -7.7179737341  MEMB      68              0.0000000000
      9108        74  POPS      C311            1.1451577483       10.4668368714       -6.6461942177  MEMB      68              0.0000000000
      9109        74  POPS      H11X            1.2074029859       11.1010605835       -5.7361350695  MEMB      68              0.0000000000
      9110        74  POPS      H11Y            2.2325955264       10.3050810280       -6.8063036063  MEMB      68              0.0000000000
      9111        74  POPS      C312            0.3782374746        9.3811395252       -5.9493563154  MEMB      68              0.0000000000
      9112        74  POPS      H12X            0.0817699789        8.6135760765       -6.6958644802  MEMB      68              0.0000000000
      9113        74  POPS      H12Y           -0.5846757507        9.6524541130       -5.4661301045  MEMB      68              0.0000000000
      9114        74  POPS      C313            1.1698249970        8.5979591248       -4.8937578377  MEMB      68              0.0000000000
      9115        74  POPS      H13X            2.2051721920        8.2716861344       -5.1302391289  MEMB      68              0.0000000000
      9116        74  POPS      H13Y            0.6316527629        7.6682678065       -4.6102688188  MEMB      68              0.0000000000
      9117        74  POPS      C314            1.4634109744        9.3988375237       -3.6511793961  MEMB      68              0.0000000000
      9118        74  POPS      H14X            0.5470051997        9.9976419484       -3.4615612514  MEMB      68              0.0000000000
      9119        74  POPS      H14Y            2.3746091601       10.0189495515       -3.7908194286  MEMB      68              0.0000000000
      9120        74  POPS      C315            1.8622585939        8.5985167067       -2.4524051195  MEMB      68              0.0000000000
      9121        74  POPS      H15X            2.7554101169        7.9892932165       -2.7082344308  MEMB      68              0.0000000000
      9122        74  POPS      H15Y            1.0243032781        7.9149662672       -2.1976300752  MEMB      68              0.0000000000
      9123        74  POPS      C316            2.2046115420        9.4373047263       -1.2174732895  MEMB      68              0.0000000000
      9124        74  POPS      H16X            2.7304139180       10.3525930016       -1.5640291706  MEMB      68              0.0000000000
      9125        74  POPS      H16Y            2.8696696544        8.9373784005       -0.4812037134  MEMB      68              0.0000000000
      9126        74  POPS      H16Z            1.2803447062        9.7470445451       -0.6844506432  MEMB      68              0.0000000000
      9127        75  POPS      N              -5.2023722899       -6.2375041572      -21.1447487274  MEMB      69              0.0000000000
      9128        75  POPS      HN1            -5.9223122738       -6.9763050671      -21.0126136937  MEMB      69              0.0000000000
      9129        75  POPS      HN2            -5.4490358492       -5.4359757978      -20.5296799240  MEMB      69              0.0000000000
      9130        75  POPS      HN3            -5.1279610918       -5.9870569214      -22.1513961773  MEMB      69              0.0000000000
      9131        75  POPS      C12            -3.9394524401       -6.7589415368      -20.5366720610  MEMB      69              0.0000000000
      9132        75  POPS      H12A           -3.2374705587       -5.9446079681      -20.6390554971  MEMB      69              0.0000000000
      9133        75  POPS      C13            -3.4769432307       -8.1287299183      -21.0483745434  MEMB      69              0.0000000000
      9134        75  POPS      O13A           -4.2346031753       -8.7938076403      -21.8568616635  MEMB      69              0.0000000000
      9135        75  POPS      O13B           -2.3693258636       -8.5374681248      -20.6135873634  MEMB      69              0.0000000000
      9136        75  POPS      C11            -4.0788063260       -6.9708786418      -19.0110703050  MEMB      69              0.0000000000
      9137        75  POPS      H11A           -3.0883603904       -7.1593985642      -18.5443818856  MEMB      69              0.0000000000
      9138        75  POPS      H11B           -4.7647298541       -7.8438452064      -18.9691268170  MEMB      69              0.0000000000
      9139        75  POPS      P              -5.2853390815       -5.9336124513      -16.8829481272  MEMB      69              0.0000000000
      9140        75  POPS      O13            -6.3762334513       -4.9404875202      -16.8684132770  MEMB      69              0.0000000000
      9141        75  POPS      O14            -4.2001686395       -5.8494034563      -15.8914003000  MEMB      69              0.0000000000
      9142        75  POPS      O12            -4.5895327056       -5.8253380334      -18.2872604314  MEMB      69              0.0000000000
      9143        75  POPS      O11            -5.7668988295       -7.4286356848      -16.8586631628  MEMB      69              0.0000000000
      9144        75  POPS      C1             -6.9303421587       -7.7955152190      -17.6222456407  MEMB      69              0.0000000000
      9145        75  POPS      HA             -6.7368034776       -7.9311106469      -18.7078227365  MEMB      69              0.0000000000
      9146        75  POPS      HB             -7.7664151498       -7.0831338254      -17.4554653297  MEMB      69              0.0000000000
      9147        75  POPS      C2             -7.4678692418       -9.1565748134      -17.1160078345  MEMB      69              0.0000000000
      9148        75  POPS      HS             -8.5099678423       -9.2970702087      -17.4746331704  MEMB      69              0.0000000000
      9149        75  POPS      O21            -7.3982917593       -9.4140039368      -15.7269327267  MEMB      69              0.0000000000
      9150        75  POPS      C21            -8.3491053140       -8.7981646092      -14.9699345070  MEMB      69              0.0000000000
      9151        75  POPS      O22            -9.2933965912       -8.2330383206      -15.4446905714  MEMB      69              0.0000000000
      9152        75  POPS      C22            -8.0978218444       -8.9722242549      -13.4513966799  MEMB      69              0.0000000000
      9153        75  POPS      H2R            -6.9931445115       -9.0504519419      -13.3625742229  MEMB      69              0.0000000000
      9154        75  POPS      H2S            -8.5756862824       -9.9175527568      -13.1162544211  MEMB      69              0.0000000000
      9155        75  POPS      C3             -6.6057144514      -10.3076806689      -17.7318078308  MEMB      69              0.0000000000
      9156        75  POPS      HX             -6.8276218530      -10.3978823172      -18.8166772747  MEMB      69              0.0000000000
      9157        75  POPS      HY             -7.0865312275      -11.2307499597      -17.3431184102  MEMB      69              0.0000000000
      9158        75  POPS      O31            -5.2447408623      -10.1142203055      -17.3999586332  MEMB      69              0.0000000000
      9159        75  POPS      C31            -4.3679435997      -11.0714058818      -17.6123783575  MEMB      69              0.0000000000
      9160        75  POPS      O32            -4.5552989359      -12.1161661456      -18.2882065562  MEMB      69              0.0000000000
      9161        75  POPS      C32            -3.0557397328      -10.7323801150      -16.8511233158  MEMB      69              0.0000000000
      9162        75  POPS      H2X            -2.2645637542      -10.5001547151      -17.5957258224  MEMB      69              0.0000000000
      9163        75  POPS      H2Y            -2.7183181720      -11.6291876691      -16.2888034492  MEMB      69              0.0000000000
      9164        75  POPS      C23            -8.5938758157       -7.8147682458      -12.6299783986  MEMB      69              0.0000000000
      9165        75  POPS      H3R            -8.5594186346       -8.1306546027      -11.5653893148  MEMB      69              0.0000000000
      9166        75  POPS      H3S            -9.6757553094       -7.6443092720      -12.8165294647  MEMB      69              0.0000000000
      9167        75  POPS      C24            -7.6643622847       -6.5906575575      -12.9360454630  MEMB      69              0.0000000000
      9168        75  POPS      H4R            -7.7967800807       -6.2651653841      -13.9900100361  MEMB      69              0.0000000000
      9169        75  POPS      H4S            -6.6790164795       -6.9070569977      -12.5319340100  MEMB      69              0.0000000000
      9170        75  POPS      C25            -8.1628924885       -5.3454489686      -12.2491965769  MEMB      69              0.0000000000
      9171        75  POPS      H5R            -8.3230982054       -5.4779444409      -11.1578215349  MEMB      69              0.0000000000
      9172        75  POPS      H5S            -9.1094826014       -5.0457372245      -12.7476553476  MEMB      69              0.0000000000
      9173        75  POPS      C26            -7.0281162288       -4.2343949293      -12.2920927442  MEMB      69              0.0000000000
      9174        75  POPS      H6R            -7.4131087503       -3.2046178590      -12.1319021530  MEMB      69              0.0000000000
      9175        75  POPS      H6S            -6.4581260915       -4.4106239668      -13.2293098535  MEMB      69              0.0000000000
      9176        75  POPS      C27            -6.0559935074       -4.2884840882      -11.0883261977  MEMB      69              0.0000000000
      9177        75  POPS      H7R            -5.1795208376       -3.6858362687      -11.4091569029  MEMB      69              0.0000000000
      9178        75  POPS      H7S            -5.6257071892       -5.3001374043      -10.9279137411  MEMB      69              0.0000000000
      9179        75  POPS      C28            -6.5365150252       -3.6973984547       -9.7229032840  MEMB      69              0.0000000000
      9180        75  POPS      H8R            -7.4711727126       -4.2133617337       -9.4154661391  MEMB      69              0.0000000000
      9181        75  POPS      H8S            -6.6763773492       -2.6526489894      -10.0739850330  MEMB      69              0.0000000000
      9182        75  POPS      C29            -5.4679924156       -3.8101998722       -8.7134643422  MEMB      69              0.0000000000
      9183        75  POPS      H91            -4.5455039533       -3.2461756795       -8.9156819125  MEMB      69              0.0000000000
      9184        75  POPS      C210           -5.5260209034       -4.3861110240       -7.4638069818  MEMB      69              0.0000000000
      9185        75  POPS      H101           -4.5991520620       -4.4602916439       -6.8760896056  MEMB      69              0.0000000000
      9186        75  POPS      C211           -6.7053155136       -5.0274214080       -6.7882189692  MEMB      69              0.0000000000
      9187        75  POPS      H11R           -7.4549877060       -5.3636683111       -7.5360490933  MEMB      69              0.0000000000
      9188        75  POPS      H11S           -7.1377806279       -4.4736228765       -5.9276363100  MEMB      69              0.0000000000
      9189        75  POPS      C212           -6.2153553557       -6.3291412368       -6.0388906141  MEMB      69              0.0000000000
      9190        75  POPS      H12R           -5.6194116098       -6.2323912194       -5.1062541390  MEMB      69              0.0000000000
      9191        75  POPS      H12S           -5.6282618806       -6.9026735078       -6.7876922518  MEMB      69              0.0000000000
      9192        75  POPS      C213           -7.3541256049       -7.3186803982       -5.6191731215  MEMB      69              0.0000000000
      9193        75  POPS      H13R           -7.0515472764       -8.3655236584       -5.4026403296  MEMB      69              0.0000000000
      9194        75  POPS      H13S           -7.9156731566       -7.5106262331       -6.5583970697  MEMB      69              0.0000000000
      9195        75  POPS      C214           -8.2584183369       -6.8245548031       -4.4699202603  MEMB      69              0.0000000000
      9196        75  POPS      H14R           -9.0806583960       -7.5690756740       -4.4072231741  MEMB      69              0.0000000000
      9197        75  POPS      H14S           -8.6046079499       -5.7715443616       -4.5450399118  MEMB      69              0.0000000000
      9198        75  POPS      C215           -7.5526209940       -7.0283217721       -3.0957209035  MEMB      69              0.0000000000
      9199        75  POPS      H15R           -6.4804674481       -6.7610433980       -3.2113493446  MEMB      69              0.0000000000
      9200        75  POPS      H15S           -7.6344350357       -8.1256603751       -2.9425037144  MEMB      69              0.0000000000
      9201        75  POPS      C216           -8.1727480209       -6.2313462895       -1.9242987464  MEMB      69              0.0000000000
      9202        75  POPS      H16R           -9.2373058543       -6.5250296934       -1.8026961973  MEMB      69              0.0000000000
      9203        75  POPS      H16S           -8.2200501001       -5.1370442643       -2.1102740177  MEMB      69              0.0000000000
      9204        75  POPS      C217           -7.4686903440       -6.4557085958       -0.5528282127  MEMB      69              0.0000000000
      9205        75  POPS      H17R           -7.4580708389       -7.5493551975       -0.3575199249  MEMB      69              0.0000000000
      9206        75  POPS      H17S           -8.0578623790       -6.0682567405        0.3057045303  MEMB      69              0.0000000000
      9207        75  POPS      C218           -6.1118611951       -5.7108775883       -0.3928348248  MEMB      69              0.0000000000
      9208        75  POPS      H18R           -5.2979944882       -6.3770965874       -0.7507380823  MEMB      69              0.0000000000
      9209        75  POPS      H18S           -6.0049081622       -5.4928019225        0.6912890611  MEMB      69              0.0000000000
      9210        75  POPS      H18T           -6.1531626661       -4.7319942673       -0.9166693165  MEMB      69              0.0000000000
      9211        75  POPS      C33            -3.2066553897       -9.4852214369      -16.0197237953  MEMB      69              0.0000000000
      9212        75  POPS      H3X            -4.0996941875       -9.4339161796      -15.3608077757  MEMB      69              0.0000000000
      9213        75  POPS      H3Y            -3.3429870691       -8.6306722270      -16.7164879196  MEMB      69              0.0000000000
      9214        75  POPS      C34            -1.8418071807       -9.1852893632      -15.3118584100  MEMB      69              0.0000000000
      9215        75  POPS      H4X            -1.0435777633       -9.0275714380      -16.0683474276  MEMB      69              0.0000000000
      9216        75  POPS      H4Y            -1.6393997809      -10.1517042219      -14.8025505994  MEMB      69              0.0000000000
      9217        75  POPS      C35            -1.7930401392       -8.1108942306      -14.1889847512  MEMB      69              0.0000000000
      9218        75  POPS      H5X            -1.9825494870       -7.1057286782      -14.6226317371  MEMB      69              0.0000000000
      9219        75  POPS      H5Y            -0.7817974519       -8.2458167777      -13.7490929074  MEMB      69              0.0000000000
      9220        75  POPS      C36            -2.7741074443       -8.2752258312      -13.0176274342  MEMB      69              0.0000000000
      9221        75  POPS      H6X            -2.5221902950       -9.1425684551      -12.3706526718  MEMB      69              0.0000000000
      9222        75  POPS      H6Y            -3.8743203327       -8.3855058965      -13.1257522375  MEMB      69              0.0000000000
      9223        75  POPS      C37            -2.6133915198       -7.0987978054      -12.0528643474  MEMB      69              0.0000000000
      9224        75  POPS      H7X            -3.0047498177       -6.1969082403      -12.5703148652  MEMB      69              0.0000000000
      9225        75  POPS      H7Y            -1.5310824768       -6.9129950721      -11.8843252511  MEMB      69              0.0000000000
      9226        75  POPS      C38            -3.2479820927       -7.3431626368      -10.7050862666  MEMB      69              0.0000000000
      9227        75  POPS      H8X            -4.1594118619       -7.9757645283      -10.7636664909  MEMB      69              0.0000000000
      9228        75  POPS      H8Y            -3.6110501502       -6.4156001091      -10.2130187736  MEMB      69              0.0000000000
      9229        75  POPS      C39            -2.3711165674       -8.0237687434       -9.6447484269  MEMB      69              0.0000000000
      9230        75  POPS      H9X            -1.3299421231       -8.1253322497      -10.0188631056  MEMB      69              0.0000000000
      9231        75  POPS      H9Y            -2.7773915201       -9.0404199601       -9.4558520746  MEMB      69              0.0000000000
      9232        75  POPS      C310           -2.3712951837       -7.3280240584       -8.2792387724  MEMB      69              0.0000000000
      9233        75  POPS      H10X           -3.3617841456       -7.2393184148       -7.7838761640  MEMB      69              0.0000000000
      9234        75  POPS      H10Y           -2.0662226820       -6.2775340639       -8.4734616570  MEMB      69              0.0000000000
      9235        75  POPS      C311           -1.5203208496       -7.9262374979       -7.1238231371  MEMB      69              0.0000000000
      9236        75  POPS      H11X           -0.9387450425       -7.1789349950       -6.5427645370  MEMB      69              0.0000000000
      9237        75  POPS      H11Y           -0.6345262924       -8.4517530380       -7.5403842538  MEMB      69              0.0000000000
      9238        75  POPS      C312           -2.2532155000       -8.9520052178       -6.2066003446  MEMB      69              0.0000000000
      9239        75  POPS      H12X           -1.4382972247       -9.6367424210       -5.8882238231  MEMB      69              0.0000000000
      9240        75  POPS      H12Y           -3.0502597683       -9.4075838261       -6.8322918693  MEMB      69              0.0000000000
      9241        75  POPS      C313           -2.8726388944       -8.3545456037       -4.8547942346  MEMB      69              0.0000000000
      9242        75  POPS      H13X           -3.4218866725       -7.4202238235       -5.0991119144  MEMB      69              0.0000000000
      9243        75  POPS      H13Y           -2.0147664365       -7.8982070744       -4.3161564453  MEMB      69              0.0000000000
      9244        75  POPS      C314           -3.6295762031       -9.2927205123       -3.9081633001  MEMB      69              0.0000000000
      9245        75  POPS      H14X           -2.9477154581      -10.0932570869       -3.5496557619  MEMB      69              0.0000000000
      9246        75  POPS      H14Y           -4.4533398764       -9.6597850484       -4.5570071197  MEMB      69              0.0000000000
      9247        75  POPS      C315           -4.2379413605       -8.6487140861       -2.7014351384  MEMB      69              0.0000000000
      9248        75  POPS      H15X           -5.0543908613       -9.2758456181       -2.2837782357  MEMB      69              0.0000000000
      9249        75  POPS      H15Y           -4.6718738860       -7.6611094495       -2.9672561257  MEMB      69              0.0000000000
      9250        75  POPS      C316           -3.0917891644       -8.2369506167       -1.6776756268  MEMB      69              0.0000000000
      9251        75  POPS      H16X           -2.4653153769       -9.0554436208       -1.2630419080  MEMB      69              0.0000000000
      9252        75  POPS      H16Y           -3.5429886225       -7.6649197559       -0.8389136636  MEMB      69              0.0000000000
      9253        75  POPS      H16Z           -2.3745504052       -7.6025303391       -2.2410582589  MEMB      69              0.0000000000
      9254        76  POPC      N              -8.6956917313        1.9824719121      -19.1725995068  MEMB      70              0.0000000000
      9255        76  POPC      C12            -7.7457229393        1.1206254621      -18.3239763354  MEMB      70              0.0000000000
      9256        76  POPC      H12A           -8.1824098141        0.1425480697      -18.1858845060  MEMB      70              0.0000000000
      9257        76  POPC      H12B           -7.7910961951        1.5095260885      -17.3174488251  MEMB      70              0.0000000000
      9258        76  POPC      C13            -9.0371975248        1.1997207347      -20.3940804048  MEMB      70              0.0000000000
      9259        76  POPC      H13A           -9.4083309442        0.2647543293      -20.0010180811  MEMB      70              0.0000000000
      9260        76  POPC      H13B           -9.8837550644        1.5649328617      -20.9565397924  MEMB      70              0.0000000000
      9261        76  POPC      H13C           -8.1412549445        0.9897884872      -20.9594255530  MEMB      70              0.0000000000
      9262        76  POPC      C14           -10.0229720291        2.1083966919      -18.4524507833  MEMB      70              0.0000000000
      9263        76  POPC      H14A           -9.8160564246        2.6404279502      -17.5356472823  MEMB      70              0.0000000000
      9264        76  POPC      H14B          -10.7312636073        2.6731915380      -19.0404385083  MEMB      70              0.0000000000
      9265        76  POPC      H14C          -10.4640774929        1.1597013243      -18.1844896051  MEMB      70              0.0000000000
      9266        76  POPC      C15            -8.1758385310        3.3370355743      -19.3276800464  MEMB      70              0.0000000000
      9267        76  POPC      H15A           -7.8594730639        3.7275425749      -18.3717422275  MEMB      70              0.0000000000
      9268        76  POPC      H15B           -8.9777022125        3.9119516958      -19.7668679306  MEMB      70              0.0000000000
      9269        76  POPC      H15C           -7.2981926563        3.4437366278      -19.9479642601  MEMB      70              0.0000000000
      9270        76  POPC      C11            -6.3107856527        0.9900222685      -18.7115049243  MEMB      70              0.0000000000
      9271        76  POPC      H11A           -6.3039966398        0.8137693890      -19.8084141290  MEMB      70              0.0000000000
      9272        76  POPC      H11B           -5.8712228374        0.0891002678      -18.2325006464  MEMB      70              0.0000000000
      9273        76  POPC      P              -4.1848276776        2.5544616506      -18.9929646128  MEMB      70              0.0000000000
      9274        76  POPC      O13            -3.6650786090        3.7932438849      -18.2607963804  MEMB      70              0.0000000000
      9275        76  POPC      O14            -4.2674906206        2.6246696439      -20.4900863770  MEMB      70              0.0000000000
      9276        76  POPC      O12            -5.6344793274        2.2144704715      -18.4069768367  MEMB      70              0.0000000000
      9277        76  POPC      O11            -3.3713828228        1.3703877846      -18.4668837946  MEMB      70              0.0000000000
      9278        76  POPC      C1             -2.0604065697        1.5563762392      -17.8162690761  MEMB      70              0.0000000000
      9279        76  POPC      HA             -1.6998666051        2.6021566118      -17.7129477978  MEMB      70              0.0000000000
      9280        76  POPC      HB             -1.3671034149        0.8566707044      -18.3301403746  MEMB      70              0.0000000000
      9281        76  POPC      C2             -2.2509598959        0.9291817824      -16.4142438721  MEMB      70              0.0000000000
      9282        76  POPC      HS             -2.7579243543       -0.0566184528      -16.4884477084  MEMB      70              0.0000000000
      9283        76  POPC      O21            -3.0855133278        1.8792150183      -15.7270316335  MEMB      70              0.0000000000
      9284        76  POPC      C21            -4.1716451173        1.4370968805      -15.0447282506  MEMB      70              0.0000000000
      9285        76  POPC      O22            -4.6877447355        0.3484520726      -15.1287639526  MEMB      70              0.0000000000
      9286        76  POPC      C22            -4.7044533278        2.6481367028      -14.3005192609  MEMB      70              0.0000000000
      9287        76  POPC      H2R            -5.0827776916        3.3731544339      -15.0525438613  MEMB      70              0.0000000000
      9288        76  POPC      H2S            -3.8514131867        3.1805939901      -13.8281497921  MEMB      70              0.0000000000
      9289        76  POPC      C3             -0.9034026043        0.7420916384      -15.6966571887  MEMB      70              0.0000000000
      9290        76  POPC      HX             -0.3222476086        1.6886477555      -15.7213752671  MEMB      70              0.0000000000
      9291        76  POPC      HY             -0.1601585797        0.0517958141      -16.1498687718  MEMB      70              0.0000000000
      9292        76  POPC      O31            -1.1498533357        0.1646623682      -14.3652049643  MEMB      70              0.0000000000
      9293        76  POPC      C31            -1.0746495135        0.9570079399      -13.3282968705  MEMB      70              0.0000000000
      9294        76  POPC      O32            -0.7376828387        2.1479904721      -13.4645825784  MEMB      70              0.0000000000
      9295        76  POPC      C32            -1.5028373285        0.3113496952      -12.0258884963  MEMB      70              0.0000000000
      9296        76  POPC      H2X            -0.7646758733       -0.4938698633      -11.8232558638  MEMB      70              0.0000000000
      9297        76  POPC      H2Y            -2.5036761073       -0.1680212335      -11.9725365489  MEMB      70              0.0000000000
      9298        76  POPC      C23            -5.7318430070        2.0791430378      -13.3342273760  MEMB      70              0.0000000000
      9299        76  POPC      H3R            -5.2529127705        1.3572828615      -12.6386234323  MEMB      70              0.0000000000
      9300        76  POPC      H3S            -6.5287663222        1.5366463520      -13.8864336759  MEMB      70              0.0000000000
      9301        76  POPC      C24            -6.4690120330        3.0938403662      -12.3539981430  MEMB      70              0.0000000000
      9302        76  POPC      H4R            -6.8482316172        4.0005254957      -12.8721058122  MEMB      70              0.0000000000
      9303        76  POPC      H4S            -5.6231194291        3.5145756478      -11.7693883089  MEMB      70              0.0000000000
      9304        76  POPC      C25            -7.6044220567        2.4592289894      -11.5197921793  MEMB      70              0.0000000000
      9305        76  POPC      H5R            -7.2612103548        1.5502196841      -10.9810632519  MEMB      70              0.0000000000
      9306        76  POPC      H5S            -8.3979951610        2.1523926046      -12.2342252577  MEMB      70              0.0000000000
      9307        76  POPC      C26            -8.1835785133        3.4527738290      -10.5547013819  MEMB      70              0.0000000000
      9308        76  POPC      H6R            -9.0601525546        2.9942372333      -10.0490497968  MEMB      70              0.0000000000
      9309        76  POPC      H6S            -8.5415034419        4.3837736342      -11.0440378173  MEMB      70              0.0000000000
      9310        76  POPC      C27            -7.2085981790        3.8828671222       -9.4554382141  MEMB      70              0.0000000000
      9311        76  POPC      H7R            -6.2231412954        4.2882097689       -9.7699108271  MEMB      70              0.0000000000
      9312        76  POPC      H7S            -6.9107714464        2.9570199119       -8.9183840936  MEMB      70              0.0000000000
      9313        76  POPC      C28            -7.7834708022        4.9334389048       -8.4244245456  MEMB      70              0.0000000000
      9314        76  POPC      H8R            -8.0171458521        5.7653140225       -9.1227800762  MEMB      70              0.0000000000
      9315        76  POPC      H8S            -7.0060031803        5.3395597589       -7.7425664595  MEMB      70              0.0000000000
      9316        76  POPC      C29            -9.0223475575        4.6993457498       -7.6350620114  MEMB      70              0.0000000000
      9317        76  POPC      H91            -9.8617843176        5.3634975756       -7.8885342456  MEMB      70              0.0000000000
      9318        76  POPC      C210           -9.2251549489        3.7589206320       -6.6905712909  MEMB      70              0.0000000000
      9319        76  POPC      H101          -10.1579373989        3.7284835813       -6.1083424576  MEMB      70              0.0000000000
      9320        76  POPC      C211           -8.1938869301        2.7490477071       -6.2784011866  MEMB      70              0.0000000000
      9321        76  POPC      H11R           -7.4180281900        2.6732369906       -7.0699917652  MEMB      70              0.0000000000
      9322        76  POPC      H11S           -8.6465174172        1.7365931826       -6.2121999245  MEMB      70              0.0000000000
      9323        76  POPC      C212           -7.3133180896        3.0593115457       -4.9984927521  MEMB      70              0.0000000000
      9324        76  POPC      H12R           -6.6499810895        3.9030546239       -5.2855508763  MEMB      70              0.0000000000
      9325        76  POPC      H12S           -6.6593471380        2.1753630843       -4.8395012904  MEMB      70              0.0000000000
      9326        76  POPC      C213           -8.1114111640        3.2311450823       -3.6800063645  MEMB      70              0.0000000000
      9327        76  POPC      H13R           -8.6196016551        2.2434886663       -3.6555473418  MEMB      70              0.0000000000
      9328        76  POPC      H13S           -8.9529896477        3.9493098287       -3.7815275478  MEMB      70              0.0000000000
      9329        76  POPC      C214           -7.2303905065        3.6313089361       -2.4847896008  MEMB      70              0.0000000000
      9330        76  POPC      H14R           -6.3300160680        2.9807263303       -2.5045156302  MEMB      70              0.0000000000
      9331        76  POPC      H14S           -7.8268183701        3.3908170257       -1.5788341770  MEMB      70              0.0000000000
      9332        76  POPC      C215           -6.8306624487        5.0914509674       -2.6455057152  MEMB      70              0.0000000000
      9333        76  POPC      H15R           -7.7308211472        5.7294732067       -2.7757476828  MEMB      70              0.0000000000
      9334        76  POPC      H15S           -6.1736680421        5.2434542711       -3.5284410541  MEMB      70              0.0000000000
      9335        76  POPC      C216           -5.9832143042        5.5045345429       -1.4207104405  MEMB      70              0.0000000000
      9336        76  POPC      H16R           -6.5324400715        5.3695495372       -0.4644417305  MEMB      70              0.0000000000
      9337        76  POPC      H16S           -5.6938731480        6.5770120769       -1.4405626614  MEMB      70              0.0000000000
      9338        76  POPC      C217           -4.5934192794        4.9562689968       -1.2373809444  MEMB      70              0.0000000000
      9339        76  POPC      H17R           -3.9438741898        5.3035820663       -2.0691171955  MEMB      70              0.0000000000
      9340        76  POPC      H17S           -4.7572018417        3.8577863241       -1.2662221515  MEMB      70              0.0000000000
      9341        76  POPC      C218           -3.8784686779        5.3666323467        0.0919871209  MEMB      70              0.0000000000
      9342        76  POPC      H18R           -3.7181770951        6.4549375971        0.2476127168  MEMB      70              0.0000000000
      9343        76  POPC      H18S           -2.9149686878        4.8196649899        0.1745418413  MEMB      70              0.0000000000
      9344        76  POPC      H18T           -4.4705820836        5.0077451397        0.9608511031  MEMB      70              0.0000000000
      9345        76  POPC      C33            -1.5810546918        1.2907574338      -10.8789586868  MEMB      70              0.0000000000
      9346        76  POPC      H3X            -0.8015314163        2.0823784017      -10.8793387572  MEMB      70              0.0000000000
      9347        76  POPC      H3Y            -1.3378662807        0.7918885587       -9.9165089057  MEMB      70              0.0000000000
      9348        76  POPC      C34            -2.9524007851        1.8447415845      -10.6969886742  MEMB      70              0.0000000000
      9349        76  POPC      H4X            -3.7006934440        1.0779385498      -10.4030626860  MEMB      70              0.0000000000
      9350        76  POPC      H4Y            -3.1574854141        2.1774458705      -11.7369733776  MEMB      70              0.0000000000
      9351        76  POPC      C35            -2.9643047966        3.0355443861       -9.8001976469  MEMB      70              0.0000000000
      9352        76  POPC      H5X            -3.9407199412        3.5463118711       -9.9417987978  MEMB      70              0.0000000000
      9353        76  POPC      H5Y            -2.2099897558        3.7337876482      -10.2218449801  MEMB      70              0.0000000000
      9354        76  POPC      C36            -2.7159673800        2.7874031605       -8.2480422187  MEMB      70              0.0000000000
      9355        76  POPC      H6X            -2.9328574101        3.6540613623       -7.5876001605  MEMB      70              0.0000000000
      9356        76  POPC      H6Y            -1.6415575277        2.5670347056       -8.0708364168  MEMB      70              0.0000000000
      9357        76  POPC      C37            -3.6199032695        1.6765115594       -7.6873773456  MEMB      70              0.0000000000
      9358        76  POPC      H7X            -3.3025237715        0.6675643420       -8.0274013536  MEMB      70              0.0000000000
      9359        76  POPC      H7Y            -4.5689524741        1.9322265500       -8.2052923758  MEMB      70              0.0000000000
      9360        76  POPC      C38            -3.7029119195        1.7389600064       -6.1513365610  MEMB      70              0.0000000000
      9361        76  POPC      H8X            -4.2896923013        2.6210482453       -5.8167770599  MEMB      70              0.0000000000
      9362        76  POPC      H8Y            -2.6633508090        1.8755485609       -5.7839439237  MEMB      70              0.0000000000
      9363        76  POPC      C39            -4.3405157541        0.5994506683       -5.4769492195  MEMB      70              0.0000000000
      9364        76  POPC      H9X            -3.7787083892       -0.2644891824       -5.8920414127  MEMB      70              0.0000000000
      9365        76  POPC      H9Y            -5.3998251938        0.4994143769       -5.7966003107  MEMB      70              0.0000000000
      9366        76  POPC      C310           -4.2494100821        0.6589725836       -3.9361891214  MEMB      70              0.0000000000
      9367        76  POPC      H10X           -4.8981456079        1.4797220632       -3.5622456538  MEMB      70              0.0000000000
      9368        76  POPC      H10Y           -3.1811712936        0.7877180841       -3.6594016701  MEMB      70              0.0000000000
      9369        76  POPC      C311           -4.7568753004       -0.5771182835       -3.2085183436  MEMB      70              0.0000000000
      9370        76  POPC      H11X           -4.3320654862       -1.4547397275       -3.7410957530  MEMB      70              0.0000000000
      9371        76  POPC      H11Y           -5.8584604170       -0.5511245893       -3.3504890383  MEMB      70              0.0000000000
      9372        76  POPC      C312           -4.4742765412       -0.6104532721       -1.6859936942  MEMB      70              0.0000000000
      9373        76  POPC      H12X           -4.2181520964        0.4195418469       -1.3576155817  MEMB      70              0.0000000000
      9374        76  POPC      H12Y           -3.5005549960       -1.1362033669       -1.5871289792  MEMB      70              0.0000000000
      9375        76  POPC      C313           -5.4732204767       -1.3210572406       -0.7382872310  MEMB      70              0.0000000000
      9376        76  POPC      H13X           -4.9441819904       -1.6138914491        0.1937466136  MEMB      70              0.0000000000
      9377        76  POPC      H13Y           -5.9280082545       -2.1880432197       -1.2634776618  MEMB      70              0.0000000000
      9378        76  POPC      C314           -6.6295514117       -0.3756922865       -0.3130397486  MEMB      70              0.0000000000
      9379        76  POPC      H14X           -7.2570460216       -0.8321558317        0.4820778435  MEMB      70              0.0000000000
      9380        76  POPC      H14Y           -7.2765738718       -0.1992524185       -1.1987889835  MEMB      70              0.0000000000
      9381        76  POPC      C315           -6.2973809484        1.0917377428        0.2867263911  MEMB      70              0.0000000000
      9382        76  POPC      H15X           -7.2756363048        1.5429205071        0.5583350961  MEMB      70              0.0000000000
      9383        76  POPC      H15Y           -5.8832508367        1.6611932425       -0.5726563607  MEMB      70              0.0000000000
      9384        76  POPC      C316           -5.2907972056        1.1369681160        1.4748879622  MEMB      70              0.0000000000
      9385        76  POPC      H16X           -5.5458665737        0.5694326627        2.3953030296  MEMB      70              0.0000000000
      9386        76  POPC      H16Y           -5.1569302778        2.1862884517        1.8144867301  MEMB      70              0.0000000000
      9387        76  POPC      H16Z           -4.2748744669        0.7497035053        1.2463098343  MEMB      70              0.0000000000
      9388        77  POPC      N               7.6079542903       14.2030889359      -19.8033108727  MEMB      71              0.0000000000
      9389        77  POPC      C12             6.7390183525       12.9421882622      -20.0647237865  MEMB      71              0.0000000000
      9390        77  POPC      H12A            6.3882264472       13.0241458941      -21.0828730300  MEMB      71              0.0000000000
      9391        77  POPC      H12B            5.9295767997       12.9796087818      -19.3507181951  MEMB      71              0.0000000000
      9392        77  POPC      C13             7.7568729352       14.4272456027      -18.2976877866  MEMB      71              0.0000000000
      9393        77  POPC      H13A            8.0015884467       15.4754129683      -18.2090339049  MEMB      71              0.0000000000
      9394        77  POPC      H13B            6.7705087417       14.2041884909      -17.9185688426  MEMB      71              0.0000000000
      9395        77  POPC      H13C            8.5118268281       13.7631302489      -17.9034855284  MEMB      71              0.0000000000
      9396        77  POPC      C14             8.9131238380       14.1502172620      -20.4779420548  MEMB      71              0.0000000000
      9397        77  POPC      H14A            9.4255006226       13.3165528673      -20.0209149339  MEMB      71              0.0000000000
      9398        77  POPC      H14B            8.7751194692       13.8352120211      -21.5017225119  MEMB      71              0.0000000000
      9399        77  POPC      H14C            9.3244965414       15.1473587873      -20.4242660246  MEMB      71              0.0000000000
      9400        77  POPC      C15             6.8869239557       15.3669648836      -20.5051896971  MEMB      71              0.0000000000
      9401        77  POPC      H15A            6.8591072553       15.1008030407      -21.5515091712  MEMB      71              0.0000000000
      9402        77  POPC      H15B            7.3648328116       16.3264375582      -20.3732231377  MEMB      71              0.0000000000
      9403        77  POPC      H15C            5.8682059244       15.4937771549      -20.1697317528  MEMB      71              0.0000000000
      9404        77  POPC      C11             7.3021195544       11.5390817108      -19.8377668396  MEMB      71              0.0000000000
      9405        77  POPC      H11A            8.2453979802       11.3346845010      -20.3880109495  MEMB      71              0.0000000000
      9406        77  POPC      H11B            6.4865287926       10.9278597169      -20.2799663223  MEMB      71              0.0000000000
      9407        77  POPC      P               7.8429687677        9.8291261757      -17.9685350477  MEMB      71              0.0000000000
      9408        77  POPC      O13             6.8927935128        8.9070750085      -18.6487100630  MEMB      71              0.0000000000
      9409        77  POPC      O14             7.8508061678        9.8317695168      -16.5028285110  MEMB      71              0.0000000000
      9410        77  POPC      O12             7.5946579282       11.2895518876      -18.4592911919  MEMB      71              0.0000000000
      9411        77  POPC      O11             9.3060419985        9.5932625572      -18.4340141467  MEMB      71              0.0000000000
      9412        77  POPC      C1             10.3307605673       10.5198925923      -18.1087729608  MEMB      71              0.0000000000
      9413        77  POPC      HA             10.0620005804       11.4173260734      -17.5115274612  MEMB      71              0.0000000000
      9414        77  POPC      HB             10.8982236243       10.9039298308      -18.9833139615  MEMB      71              0.0000000000
      9415        77  POPC      C2             11.6818775683        9.8780473050      -17.5053047236  MEMB      71              0.0000000000
      9416        77  POPC      HS             12.2905789738        9.3985930824      -18.3015001391  MEMB      71              0.0000000000
      9417        77  POPC      O21            11.4039070566        8.9492822276      -16.4595578844  MEMB      71              0.0000000000
      9418        77  POPC      C21            11.0764572383        7.7216612639      -16.8810019043  MEMB      71              0.0000000000
      9419        77  POPC      O22            10.9836332430        7.3841707109      -18.0471753956  MEMB      71              0.0000000000
      9420        77  POPC      C22            10.7428225371        6.8750297868      -15.6164506041  MEMB      71              0.0000000000
      9421        77  POPC      H2R            11.2735399221        7.3072230235      -14.7413112152  MEMB      71              0.0000000000
      9422        77  POPC      H2S            11.1735376730        5.8661869335      -15.7926350362  MEMB      71              0.0000000000
      9423        77  POPC      C3             12.6271999599       10.9440431848      -16.8502864351  MEMB      71              0.0000000000
      9424        77  POPC      HX             12.8955575671       11.5253361580      -17.7582531162  MEMB      71              0.0000000000
      9425        77  POPC      HY             13.4811969281       10.3965659052      -16.3972086262  MEMB      71              0.0000000000
      9426        77  POPC      O31            11.9135414848       11.7729578179      -15.9620960542  MEMB      71              0.0000000000
      9427        77  POPC      C31            12.0436828682       11.5598235048      -14.6631952373  MEMB      71              0.0000000000
      9428        77  POPC      O32            12.8260480877       10.7079202556      -14.2621055140  MEMB      71              0.0000000000
      9429        77  POPC      C32            11.0935914615       12.2942965857      -13.8533367293  MEMB      71              0.0000000000
      9430        77  POPC      H2X            10.0642954400       11.9078979035      -14.0132333686  MEMB      71              0.0000000000
      9431        77  POPC      H2Y            10.9660641107       13.3758753187      -14.0729851450  MEMB      71              0.0000000000
      9432        77  POPC      C23             9.2859153970        6.9037781566      -15.1095674156  MEMB      71              0.0000000000
      9433        77  POPC      H3R             8.4619427349        6.8397027244      -15.8520529945  MEMB      71              0.0000000000
      9434        77  POPC      H3S             9.0976272109        7.8648308856      -14.5849280637  MEMB      71              0.0000000000
      9435        77  POPC      C24             9.0237793157        5.8689729077      -13.9979428399  MEMB      71              0.0000000000
      9436        77  POPC      H4R             8.8684540394        4.8579106269      -14.4314716831  MEMB      71              0.0000000000
      9437        77  POPC      H4S             8.0125866563        6.0724954292      -13.5851605262  MEMB      71              0.0000000000
      9438        77  POPC      C25             9.8545767892        5.8807846535      -12.6779126653  MEMB      71              0.0000000000
      9439        77  POPC      H5R            10.9293832055        5.7565139484      -12.9302402861  MEMB      71              0.0000000000
      9440        77  POPC      H5S             9.5509675730        4.8931603916      -12.2695737352  MEMB      71              0.0000000000
      9441        77  POPC      C26             9.5396606883        6.8648127614      -11.6010525380  MEMB      71              0.0000000000
      9442        77  POPC      H6R             9.4260559841        6.3771869003      -10.6092679311  MEMB      71              0.0000000000
      9443        77  POPC      H6S             8.5660033329        7.3921645163      -11.6916731604  MEMB      71              0.0000000000
      9444        77  POPC      C27            10.6848029817        7.8617876711      -11.3789497725  MEMB      71              0.0000000000
      9445        77  POPC      H7R            10.7158833192        8.5137782127      -12.2779841379  MEMB      71              0.0000000000
      9446        77  POPC      H7S            11.6735623599        7.3696086722      -11.2587995376  MEMB      71              0.0000000000
      9447        77  POPC      C28            10.5363867613        8.9172484792      -10.2749958594  MEMB      71              0.0000000000
      9448        77  POPC      H8R            11.3114866928        9.7070696881      -10.3736042205  MEMB      71              0.0000000000
      9449        77  POPC      H8S            10.7386924839        8.3146860935       -9.3637816493  MEMB      71              0.0000000000
      9450        77  POPC      C29             9.1956121523        9.6503741774      -10.1860503554  MEMB      71              0.0000000000
      9451        77  POPC      H91             9.0349808174       10.2662960977      -11.0831783556  MEMB      71              0.0000000000
      9452        77  POPC      C210            8.3566315573        9.6099593775       -9.1706810059  MEMB      71              0.0000000000
      9453        77  POPC      H101            7.4336327527       10.2082464186       -9.1818953808  MEMB      71              0.0000000000
      9454        77  POPC      C211            8.4403882811        8.8406114168       -7.8071898988  MEMB      71              0.0000000000
      9455        77  POPC      H11R            8.9599866257        7.8858769724       -8.0370175166  MEMB      71              0.0000000000
      9456        77  POPC      H11S            7.4341042892        8.4837364648       -7.5000191931  MEMB      71              0.0000000000
      9457        77  POPC      C212            9.2696567652        9.6187285095       -6.7463354950  MEMB      71              0.0000000000
      9458        77  POPC      H12R            8.5845343900       10.3158405501       -6.2181665162  MEMB      71              0.0000000000
      9459        77  POPC      H12S           10.0847824049       10.0955505405       -7.3315982281  MEMB      71              0.0000000000
      9460        77  POPC      C213            9.8480243670        8.6301572807       -5.7961791310  MEMB      71              0.0000000000
      9461        77  POPC      H13R           10.6548150100        8.0897740705       -6.3359899359  MEMB      71              0.0000000000
      9462        77  POPC      H13S            9.1691129303        7.8368590136       -5.4166031128  MEMB      71              0.0000000000
      9463        77  POPC      C214           10.5502404488        9.3475472245       -4.6239484957  MEMB      71              0.0000000000
      9464        77  POPC      H14R            9.7256518598        9.8591443616       -4.0829831193  MEMB      71              0.0000000000
      9465        77  POPC      H14S           11.2124977217       10.1547057504       -5.0037265804  MEMB      71              0.0000000000
      9466        77  POPC      C215           11.2354392179        8.2848826074       -3.7322836093  MEMB      71              0.0000000000
      9467        77  POPC      H15R           12.2629636552        8.3397246373       -4.1512193258  MEMB      71              0.0000000000
      9468        77  POPC      H15S           10.6453199721        7.3436886843       -3.7475902773  MEMB      71              0.0000000000
      9469        77  POPC      C216           11.4608219024        8.7952934507       -2.2616109243  MEMB      71              0.0000000000
      9470        77  POPC      H16R           11.8040529102        9.8516329104       -2.2359142899  MEMB      71              0.0000000000
      9471        77  POPC      H16S           12.3395267920        8.2085333690       -1.9182294092  MEMB      71              0.0000000000
      9472        77  POPC      C217           10.1750313205        8.6184500516       -1.4604473340  MEMB      71              0.0000000000
      9473        77  POPC      H17R            9.7887572767        7.5771399954       -1.4885011436  MEMB      71              0.0000000000
      9474        77  POPC      H17S            9.4168336665        9.2968327465       -1.9068245659  MEMB      71              0.0000000000
      9475        77  POPC      C218           10.3456053814        8.9533659126        0.1000073849  MEMB      71              0.0000000000
      9476        77  POPC      H18R            9.3542283669        8.7456745164        0.5564678154  MEMB      71              0.0000000000
      9477        77  POPC      H18S           10.6121064442       10.0272623738        0.2002303637  MEMB      71              0.0000000000
      9478        77  POPC      H18T           11.1411874378        8.2920735067        0.5050530444  MEMB      71              0.0000000000
      9479        77  POPC      C33            11.5104567365       12.2578131362      -12.4315854146  MEMB      71              0.0000000000
      9480        77  POPC      H3X            12.5470460130       12.6483308623      -12.3461495681  MEMB      71              0.0000000000
      9481        77  POPC      H3Y            11.4389510680       11.2224420490      -12.0350822964  MEMB      71              0.0000000000
      9482        77  POPC      C34            10.7468846326       13.2432231937      -11.4600461513  MEMB      71              0.0000000000
      9483        77  POPC      H4X             9.6459933812       13.1374125798      -11.5657024052  MEMB      71              0.0000000000
      9484        77  POPC      H4Y            10.9886616086       14.2956424990      -11.7213475344  MEMB      71              0.0000000000
      9485        77  POPC      C35            11.1203739603       12.9656328170       -9.9753461359  MEMB      71              0.0000000000
      9486        77  POPC      H5X            12.0494905871       12.3653475642      -10.0788885897  MEMB      71              0.0000000000
      9487        77  POPC      H5Y            10.4162935239       12.2856661542       -9.4497629677  MEMB      71              0.0000000000
      9488        77  POPC      C36            11.3878390844       14.1543897639       -9.0996359901  MEMB      71              0.0000000000
      9489        77  POPC      H6X            11.8282072922       14.9667386036       -9.7164711797  MEMB      71              0.0000000000
      9490        77  POPC      H6Y            12.0402485304       14.0170460005       -8.2109176162  MEMB      71              0.0000000000
      9491        77  POPC      C37            10.0559955844       14.7957706556       -8.4292104339  MEMB      71              0.0000000000
      9492        77  POPC      H7X             9.4552018084       14.9783399852       -9.3457454319  MEMB      71              0.0000000000
      9493        77  POPC      H7Y            10.4211677322       15.6861654753       -7.8740818498  MEMB      71              0.0000000000
      9494        77  POPC      C38             9.3741599246       13.8687299453       -7.4948434857  MEMB      71              0.0000000000
      9495        77  POPC      H8X             9.4025058797       12.7795718869       -7.7122185071  MEMB      71              0.0000000000
      9496        77  POPC      H8Y             8.2694579370       13.9867546606       -7.4998152812  MEMB      71              0.0000000000
      9497        77  POPC      C39             9.8058846630       13.8610248131       -6.0450562731  MEMB      71              0.0000000000
      9498        77  POPC      H9X            10.3133506047       14.8267202285       -5.8347430740  MEMB      71              0.0000000000
      9499        77  POPC      H9Y            10.5561622725       13.0453222154       -5.9673786160  MEMB      71              0.0000000000
      9500        77  POPC      C310            8.7033566699       13.6097929276       -4.9318686751  MEMB      71              0.0000000000
      9501        77  POPC      H10X            8.1875495829       12.7109823774       -5.3323734920  MEMB      71              0.0000000000
      9502        77  POPC      H10Y            8.0630448176       14.5034274070       -4.7714359726  MEMB      71              0.0000000000
      9503        77  POPC      C311            9.3472068472       13.2733927493       -3.5452330426  MEMB      71              0.0000000000
      9504        77  POPC      H11X           10.0239603912       14.0969564006       -3.2320740009  MEMB      71              0.0000000000
      9505        77  POPC      H11Y           10.0025404243       12.3787332202       -3.6118902668  MEMB      71              0.0000000000
      9506        77  POPC      C312            8.3115339296       13.0424758937       -2.3938012350  MEMB      71              0.0000000000
      9507        77  POPC      H12X            7.7170603349       12.1324798172       -2.6236477364  MEMB      71              0.0000000000
      9508        77  POPC      H12Y            7.5434614816       13.8293028865       -2.2347763675  MEMB      71              0.0000000000
      9509        77  POPC      C313            9.0244710870       12.7116107437       -1.0592227352  MEMB      71              0.0000000000
      9510        77  POPC      H13X            9.6329519493       13.5927008447       -0.7629928071  MEMB      71              0.0000000000
      9511        77  POPC      H13Y            9.6641343720       11.8176380270       -1.2203578654  MEMB      71              0.0000000000
      9512        77  POPC      C314            7.9813264761       12.5182272145        0.0025987770  MEMB      71              0.0000000000
      9513        77  POPC      H14X            7.2537427991       11.7225736753       -0.2655020798  MEMB      71              0.0000000000
      9514        77  POPC      H14Y            7.4764564065       13.4753136202        0.2544184457  MEMB      71              0.0000000000
      9515        77  POPC      C315            8.5779955467       12.1473928267        1.3327660140  MEMB      71              0.0000000000
      9516        77  POPC      H15X            9.5512595530       12.6500294378        1.5183306521  MEMB      71              0.0000000000
      9517        77  POPC      H15Y            8.7901485582       11.0592757106        1.2598760489  MEMB      71              0.0000000000
      9518        77  POPC      C316            7.6105162235       12.3938321178        2.5616766469  MEMB      71              0.0000000000
      9519        77  POPC      H16X            7.6376861243       11.5571766619        3.2921499259  MEMB      71              0.0000000000
      9520        77  POPC      H16Y            6.6560175276       12.5592509629        2.0177187525  MEMB      71              0.0000000000
      9521        77  POPC      H16Z            7.9125303083       13.3549880736        3.0299590431  MEMB      71              0.0000000000
      9522        78  POPC      N               3.1667386018      -11.9513780535      -19.8756313567  MEMB      72              0.0000000000
      9523        78  POPC      C12             2.9895882076      -12.3991663191      -18.4372180112  MEMB      72              0.0000000000
      9524        78  POPC      H12A            1.9851271565      -12.7959760209      -18.4373483917  MEMB      72              0.0000000000
      9525        78  POPC      H12B            3.0040201090      -11.4969316132      -17.8437835460  MEMB      72              0.0000000000
      9526        78  POPC      C13             4.6140770109      -11.4617586153      -20.0665297614  MEMB      72              0.0000000000
      9527        78  POPC      H13A            4.8654071914      -10.9929836881      -19.1265918784  MEMB      72              0.0000000000
      9528        78  POPC      H13B            5.2332918850      -12.3397508460      -20.1765429386  MEMB      72              0.0000000000
      9529        78  POPC      H13C            4.6470526452      -10.8458893022      -20.9531060926  MEMB      72              0.0000000000
      9530        78  POPC      C14             2.7587736118      -13.0330752949      -20.9004978306  MEMB      72              0.0000000000
      9531        78  POPC      H14A            3.3068025660      -13.9441961978      -20.7109641416  MEMB      72              0.0000000000
      9532        78  POPC      H14B            1.6792855848      -13.0651804931      -20.8918503856  MEMB      72              0.0000000000
      9533        78  POPC      H14C            2.9891008892      -12.6936428423      -21.8995648056  MEMB      72              0.0000000000
      9534        78  POPC      C15             2.2833713020      -10.7119869818      -20.0756986343  MEMB      72              0.0000000000
      9535        78  POPC      H15A            2.5307277668      -10.2670503568      -21.0281933415  MEMB      72              0.0000000000
      9536        78  POPC      H15B            2.6681039191       -9.9555726838      -19.4077028733  MEMB      72              0.0000000000
      9537        78  POPC      H15C            1.2500117594      -10.9506534719      -19.8717220932  MEMB      72              0.0000000000
      9538        78  POPC      C11             3.8413857644      -13.5151857765      -17.9240652387  MEMB      72              0.0000000000
      9539        78  POPC      H11A            3.6412670324      -13.7720715698      -16.8618584650  MEMB      72              0.0000000000
      9540        78  POPC      H11B            4.9163039684      -13.2538753892      -18.0269660524  MEMB      72              0.0000000000
      9541        78  POPC      P               2.6747189020      -15.8431880877      -18.3877688420  MEMB      72              0.0000000000
      9542        78  POPC      O13             3.4645850867      -16.9823835884      -17.7481549549  MEMB      72              0.0000000000
      9543        78  POPC      O14             1.8944236003      -16.1068828871      -19.6079236916  MEMB      72              0.0000000000
      9544        78  POPC      O12             3.6840149979      -14.7331665124      -18.6820745589  MEMB      72              0.0000000000
      9545        78  POPC      O11             1.6966384075      -15.2618243831      -17.2944371188  MEMB      72              0.0000000000
      9546        78  POPC      C1              0.3145341582      -15.0574068671      -17.4666888838  MEMB      72              0.0000000000
      9547        78  POPC      HA             -0.1947044722      -15.9569055537      -17.8739958455  MEMB      72              0.0000000000
      9548        78  POPC      HB              0.2159883024      -14.2386303380      -18.2111448947  MEMB      72              0.0000000000
      9549        78  POPC      C2             -0.4282835806      -14.7518384135      -16.1709472155  MEMB      72              0.0000000000
      9550        78  POPC      HS             -1.4635358888      -14.5448717761      -16.5169796272  MEMB      72              0.0000000000
      9551        78  POPC      O21             0.0963416165      -13.5620370374      -15.5298093180  MEMB      72              0.0000000000
      9552        78  POPC      C21            -0.8116511918      -12.7108346631      -14.9993676147  MEMB      72              0.0000000000
      9553        78  POPC      O22            -2.0181649924      -12.6700235893      -15.1372215721  MEMB      72              0.0000000000
      9554        78  POPC      C22             0.0023394736      -11.6792437159      -14.2113650999  MEMB      72              0.0000000000
      9555        78  POPC      H2R             0.2114983956      -10.7367122058      -14.7610996308  MEMB      72              0.0000000000
      9556        78  POPC      H2S             0.9819628122      -12.1262310790      -13.9377574056  MEMB      72              0.0000000000
      9557        78  POPC      C3             -0.3773534792      -15.8627630333      -15.0430997730  MEMB      72              0.0000000000
      9558        78  POPC      HX             -0.8091776283      -16.7857893077      -15.4856738741  MEMB      72              0.0000000000
      9559        78  POPC      HY             -1.0059728710      -15.5001907810      -14.2018508801  MEMB      72              0.0000000000
      9560        78  POPC      O31             0.9317660710      -16.1897347429      -14.5982314200  MEMB      72              0.0000000000
      9561        78  POPC      C31             1.5609550464      -15.4907749293      -13.7450418617  MEMB      72              0.0000000000
      9562        78  POPC      O32             1.0481671375      -14.7323912054      -12.9499849203  MEMB      72              0.0000000000
      9563        78  POPC      C32             3.1083844338      -15.5545990986      -13.9540732704  MEMB      72              0.0000000000
      9564        78  POPC      H2X             3.3990632423      -14.9306857881      -14.8261734257  MEMB      72              0.0000000000
      9565        78  POPC      H2Y             3.4432756949      -16.5944742277      -14.1561332633  MEMB      72              0.0000000000
      9566        78  POPC      C23            -0.6719299132      -11.3873758411      -12.8446607110  MEMB      72              0.0000000000
      9567        78  POPC      H3R            -0.7208601772      -12.3590221798      -12.3081630490  MEMB      72              0.0000000000
      9568        78  POPC      H3S            -1.6914638349      -10.9800589050      -13.0148498317  MEMB      72              0.0000000000
      9569        78  POPC      C24             0.3005489380      -10.5040111499      -12.0169849049  MEMB      72              0.0000000000
      9570        78  POPC      H4R             0.0094267240       -9.4661989675      -12.2862695250  MEMB      72              0.0000000000
      9571        78  POPC      H4S             1.3374652225      -10.6981328099      -12.3654705772  MEMB      72              0.0000000000
      9572        78  POPC      C25             0.2735968136      -10.8529152507      -10.5126665689  MEMB      72              0.0000000000
      9573        78  POPC      H5R             0.7306595004      -11.8573349474      -10.3839960718  MEMB      72              0.0000000000
      9574        78  POPC      H5S            -0.7441060434      -10.9597701861      -10.0800190757  MEMB      72              0.0000000000
      9575        78  POPC      C26             1.1481801806       -9.9180056179       -9.7078622202  MEMB      72              0.0000000000
      9576        78  POPC      H6R             1.0461064892      -10.0755751835       -8.6128403833  MEMB      72              0.0000000000
      9577        78  POPC      H6S             0.7068452139       -8.9527286264      -10.0361686302  MEMB      72              0.0000000000
      9578        78  POPC      C27             2.6151134428      -10.0721993757      -10.0342326120  MEMB      72              0.0000000000
      9579        78  POPC      H7R             2.8744527354       -9.4437625542      -10.9129427258  MEMB      72              0.0000000000
      9580        78  POPC      H7S             2.9515738807      -11.0533478075      -10.4323069575  MEMB      72              0.0000000000
      9581        78  POPC      C28             3.4843187777       -9.5375492508       -8.8871913531  MEMB      72              0.0000000000
      9582        78  POPC      H8R             2.9437046594       -8.8616649961       -8.1906005678  MEMB      72              0.0000000000
      9583        78  POPC      H8S             4.2968764898       -8.9580484429       -9.3752995527  MEMB      72              0.0000000000
      9584        78  POPC      C29             4.1040397762      -10.7274420918       -8.1675352152  MEMB      72              0.0000000000
      9585        78  POPC      H91             4.7100689502      -11.4038649773       -8.7881651622  MEMB      72              0.0000000000
      9586        78  POPC      C210            3.8028436122      -11.1084574991       -6.9467807751  MEMB      72              0.0000000000
      9587        78  POPC      H101            4.2825011894      -11.9761619182       -6.4703173318  MEMB      72              0.0000000000
      9588        78  POPC      C211            2.7948751477      -10.5826322533       -5.9353919223  MEMB      72              0.0000000000
      9589        78  POPC      H11R            1.9669880572      -11.2979755921       -5.7424983537  MEMB      72              0.0000000000
      9590        78  POPC      H11S            2.4205117978       -9.6144964634       -6.3314802832  MEMB      72              0.0000000000
      9591        78  POPC      C212            3.3585503211      -10.3279540472       -4.4786875516  MEMB      72              0.0000000000
      9592        78  POPC      H12R            2.4770383925       -9.8573918110       -3.9930651467  MEMB      72              0.0000000000
      9593        78  POPC      H12S            4.1836598022       -9.5863874871       -4.4187383697  MEMB      72              0.0000000000
      9594        78  POPC      C213            3.7111790016      -11.5823796998       -3.6399657756  MEMB      72              0.0000000000
      9595        78  POPC      H13R            4.6095671675      -12.0424691271       -4.1042254908  MEMB      72              0.0000000000
      9596        78  POPC      H13S            2.9310172078      -12.3732868235       -3.6283594707  MEMB      72              0.0000000000
      9597        78  POPC      C214            4.0947130930      -11.3184794402       -2.1869900799  MEMB      72              0.0000000000
      9598        78  POPC      H14R            5.0433174495      -10.7421969203       -2.1383169601  MEMB      72              0.0000000000
      9599        78  POPC      H14S            4.4171933715      -12.2195765986       -1.6227635047  MEMB      72              0.0000000000
      9600        78  POPC      C215            3.1033083337      -10.7658307215       -1.2887840990  MEMB      72              0.0000000000
      9601        78  POPC      H15R            2.0916718221      -11.2145548546       -1.1910087170  MEMB      72              0.0000000000
      9602        78  POPC      H15S            2.9987481799       -9.6877406567       -1.5359878545  MEMB      72              0.0000000000
      9603        78  POPC      C216            3.6521907327      -10.7460849081        0.1672033559  MEMB      72              0.0000000000
      9604        78  POPC      H16R            4.7360173954      -10.5033336054        0.1404970243  MEMB      72              0.0000000000
      9605        78  POPC      H16S            3.5339803954      -11.7614547954        0.6023703317  MEMB      72              0.0000000000
      9606        78  POPC      C217            2.8333679787       -9.8801106991        1.1001702167  MEMB      72              0.0000000000
      9607        78  POPC      H17R            3.1397344168       -8.8697514611        0.7542889248  MEMB      72              0.0000000000
      9608        78  POPC      H17S            3.1764989956      -10.1096555107        2.1316222432  MEMB      72              0.0000000000
      9609        78  POPC      C218            1.3850078025      -10.1510618720        1.0865559478  MEMB      72              0.0000000000
      9610        78  POPC      H18R            0.7416062604       -9.8573137390        1.9433343102  MEMB      72              0.0000000000
      9611        78  POPC      H18S            1.2153193689      -11.2450911614        0.9936780237  MEMB      72              0.0000000000
      9612        78  POPC      H18T            0.9417261074       -9.7433206493        0.1529778334  MEMB      72              0.0000000000
      9613        78  POPC      C33             4.0143885771      -14.8666588608      -12.8577734949  MEMB      72              0.0000000000
      9614        78  POPC      H3X             3.6568173679      -13.8205021087      -12.9674086290  MEMB      72              0.0000000000
      9615        78  POPC      H3Y             5.0374207928      -15.0029365182      -13.2690572222  MEMB      72              0.0000000000
      9616        78  POPC      C34             3.9195520164      -15.4154602059      -11.4124429075  MEMB      72              0.0000000000
      9617        78  POPC      H4X             4.5379635644      -16.3380982242      -11.3874021271  MEMB      72              0.0000000000
      9618        78  POPC      H4Y             2.8189805633      -15.5147491333      -11.2975300634  MEMB      72              0.0000000000
      9619        78  POPC      C35             4.3527597202      -14.4037747212      -10.3527060339  MEMB      72              0.0000000000
      9620        78  POPC      H5X             3.6643394421      -13.5329843261      -10.3987759226  MEMB      72              0.0000000000
      9621        78  POPC      H5Y             5.4110293943      -14.1372434099      -10.5609065241  MEMB      72              0.0000000000
      9622        78  POPC      C36             4.3358701913      -14.8106775222       -8.9001590973  MEMB      72              0.0000000000
      9623        78  POPC      H6X             4.5828103847      -13.9687150409       -8.2186602160  MEMB      72              0.0000000000
      9624        78  POPC      H6Y             5.0345294263      -15.6659902183       -8.7791782160  MEMB      72              0.0000000000
      9625        78  POPC      C37             2.9593823338      -15.1363985906       -8.3468786279  MEMB      72              0.0000000000
      9626        78  POPC      H7X             2.4500908708      -15.9685914844       -8.8782904307  MEMB      72              0.0000000000
      9627        78  POPC      H7Y             2.2152143672      -14.3115955921       -8.3622215607  MEMB      72              0.0000000000
      9628        78  POPC      C38             3.0409942028      -15.3423852960       -6.7812041778  MEMB      72              0.0000000000
      9629        78  POPC      H8X             4.0002946124      -14.9400500565       -6.3910886549  MEMB      72              0.0000000000
      9630        78  POPC      H8Y             3.0407632436      -16.4133211033       -6.4855405683  MEMB      72              0.0000000000
      9631        78  POPC      C39             1.8591328038      -14.7437321372       -6.0461375599  MEMB      72              0.0000000000
      9632        78  POPC      H9X             1.0276022808      -14.9499524576       -6.7534931070  MEMB      72              0.0000000000
      9633        78  POPC      H9Y             1.9256514503      -13.6403839572       -5.9342490039  MEMB      72              0.0000000000
      9634        78  POPC      C310            1.5334962017      -15.4542555283       -4.7407872661  MEMB      72              0.0000000000
      9635        78  POPC      H10X            2.2802832206      -15.3488088390       -3.9249993117  MEMB      72              0.0000000000
      9636        78  POPC      H10Y            1.4910537969      -16.5550197802       -4.8851378246  MEMB      72              0.0000000000
      9637        78  POPC      C311            0.2054940577      -15.0117370942       -4.1518545512  MEMB      72              0.0000000000
      9638        78  POPC      H11X           -0.3674357516      -15.8757827562       -3.7524827784  MEMB      72              0.0000000000
      9639        78  POPC      H11Y           -0.4536545654      -14.8288945505       -5.0273044883  MEMB      72              0.0000000000
      9640        78  POPC      C312            0.2487081126      -13.9218270589       -3.1610865300  MEMB      72              0.0000000000
      9641        78  POPC      H12X           -0.8376450792      -13.8192610850       -2.9521892457  MEMB      72              0.0000000000
      9642        78  POPC      H12Y            0.6936419102      -13.0126159123       -3.6190055441  MEMB      72              0.0000000000
      9643        78  POPC      C313            0.9241104850      -14.1806269769       -1.8069738388  MEMB      72              0.0000000000
      9644        78  POPC      H13X            0.7242403516      -13.2599284525       -1.2181733352  MEMB      72              0.0000000000
      9645        78  POPC      H13Y            1.9889216370      -14.3960287464       -2.0395692666  MEMB      72              0.0000000000
      9646        78  POPC      C314            0.4809688381      -15.4582485403       -1.0828009923  MEMB      72              0.0000000000
      9647        78  POPC      H14X            0.7262381159      -16.3990435192       -1.6204517101  MEMB      72              0.0000000000
      9648        78  POPC      H14Y           -0.6139198310      -15.4452122194       -0.8947325526  MEMB      72              0.0000000000
      9649        78  POPC      C315            1.1817545166      -15.5919996219        0.3469590414  MEMB      72              0.0000000000
      9650        78  POPC      H15X            2.2436713435      -15.8394310168        0.1338137048  MEMB      72              0.0000000000
      9651        78  POPC      H15Y            0.7890006888      -16.4475910040        0.9368993350  MEMB      72              0.0000000000
      9652        78  POPC      C316            1.2053292646      -14.4654948184        1.3690894272  MEMB      72              0.0000000000
      9653        78  POPC      H16X            0.1948884967      -14.1875812626        1.7379986840  MEMB      72              0.0000000000
      9654        78  POPC      H16Y            1.5745439871      -13.5658643949        0.8318134308  MEMB      72              0.0000000000
      9655        78  POPC      H16Z            1.8185443403      -14.7685732046        2.2445511976  MEMB      72              0.0000000000
      9656        79  POPC      N              11.1080460215       -1.5577427526      -20.4081676684  MEMB      73              0.0000000000
      9657        79  POPC      C12            11.3660500846       -1.3651605622      -18.8999146297  MEMB      73              0.0000000000
      9658        79  POPC      H12A           10.8360488887       -2.1567274382      -18.3910722116  MEMB      73              0.0000000000
      9659        79  POPC      H12B           10.7997513098       -0.4771688099      -18.6607984858  MEMB      73              0.0000000000
      9660        79  POPC      C13            11.7019979148       -0.3821237174      -21.1410972533  MEMB      73              0.0000000000
      9661        79  POPC      H13A           12.7574109264       -0.3015763263      -20.9265851213  MEMB      73              0.0000000000
      9662        79  POPC      H13B           11.5764863750       -0.4141108261      -22.2133024019  MEMB      73              0.0000000000
      9663        79  POPC      H13C           11.3681748044        0.5917858563      -20.8148115304  MEMB      73              0.0000000000
      9664        79  POPC      C14            11.6468600315       -2.8037835731      -20.8576432666  MEMB      73              0.0000000000
      9665        79  POPC      H14A           12.7058461263       -2.7245935637      -20.6609774720  MEMB      73              0.0000000000
      9666        79  POPC      H14B           11.3988425695       -3.6932133176      -20.2974629300  MEMB      73              0.0000000000
      9667        79  POPC      H14C           11.6137758028       -2.9641193078      -21.9251628319  MEMB      73              0.0000000000
      9668        79  POPC      C15             9.5832678257       -1.6170748850      -20.5753748425  MEMB      73              0.0000000000
      9669        79  POPC      H15A            9.0953953710       -0.7242859500      -20.2130098842  MEMB      73              0.0000000000
      9670        79  POPC      H15B            9.1254616495       -2.4099053155      -20.0024581864  MEMB      73              0.0000000000
      9671        79  POPC      H15C            9.2764323581       -1.7186023050      -21.6058817479  MEMB      73              0.0000000000
      9672        79  POPC      C11            12.7810123394       -1.2149173328      -18.3548885429  MEMB      73              0.0000000000
      9673        79  POPC      H11A           12.6405936678       -1.0539169896      -17.2646214080  MEMB      73              0.0000000000
      9674        79  POPC      H11B           13.1222568540       -0.1715822360      -18.5261343420  MEMB      73              0.0000000000
      9675        79  POPC      P              14.2141581580       -3.2513756657      -17.7939575704  MEMB      73              0.0000000000
      9676        79  POPC      O13            14.8196559182       -2.4862695337      -16.6759578233  MEMB      73              0.0000000000
      9677        79  POPC      O14            15.0061732950       -4.4070890042      -18.3343103230  MEMB      73              0.0000000000
      9678        79  POPC      O12            13.7406771257       -2.1793933090      -18.8788300900  MEMB      73              0.0000000000
      9679        79  POPC      O11            12.9620869798       -3.8896139166      -17.0798580433  MEMB      73              0.0000000000
      9680        79  POPC      C1             12.0641344988       -4.7493317010      -17.7851620938  MEMB      73              0.0000000000
      9681        79  POPC      HA             12.5664948247       -5.4006921474      -18.5319451750  MEMB      73              0.0000000000
      9682        79  POPC      HB             11.4426519329       -4.0979032839      -18.4361010456  MEMB      73              0.0000000000
      9683        79  POPC      C2             11.1628982930       -5.5925393234      -16.8422088142  MEMB      73              0.0000000000
      9684        79  POPC      HS             10.2009513902       -5.8336600761      -17.3430478444  MEMB      73              0.0000000000
      9685        79  POPC      O21            11.0573079460       -4.9743520587      -15.5771735416  MEMB      73              0.0000000000
      9686        79  POPC      C21            10.4207034283       -3.8382029481      -15.5258739919  MEMB      73              0.0000000000
      9687        79  POPC      O22             9.7967982087       -3.3423258189      -16.4270273714  MEMB      73              0.0000000000
      9688        79  POPC      C22            10.7199475131       -3.3064042847      -14.1400429212  MEMB      73              0.0000000000
      9689        79  POPC      H2R            10.9313964689       -4.1652618483      -13.4677528287  MEMB      73              0.0000000000
      9690        79  POPC      H2S             9.8203108087       -2.7598818527      -13.7846726678  MEMB      73              0.0000000000
      9691        79  POPC      C3             11.7894082448       -6.9578586711      -16.6273697019  MEMB      73              0.0000000000
      9692        79  POPC      HX             12.2364813504       -7.3243714479      -17.5761135487  MEMB      73              0.0000000000
      9693        79  POPC      HY             11.0010666298       -7.6577332432      -16.2766363050  MEMB      73              0.0000000000
      9694        79  POPC      O31            12.9488685273       -6.9080200096      -15.7740417862  MEMB      73              0.0000000000
      9695        79  POPC      C31            12.7846387041       -7.4948235442      -14.5319132998  MEMB      73              0.0000000000
      9696        79  POPC      O32            11.7577722525       -7.8697960353      -14.0215622248  MEMB      73              0.0000000000
      9697        79  POPC      C32            14.1615115365       -7.7017896003      -13.9684344582  MEMB      73              0.0000000000
      9698        79  POPC      H2X            14.9741823731       -7.1853279575      -14.5226501424  MEMB      73              0.0000000000
      9699        79  POPC      H2Y            14.3008960104       -8.7989890887      -14.0735351043  MEMB      73              0.0000000000
      9700        79  POPC      C23            11.9407275690       -2.3751418542      -14.2354930927  MEMB      73              0.0000000000
      9701        79  POPC      H3R            11.7601426271       -1.6026369437      -15.0132760724  MEMB      73              0.0000000000
      9702        79  POPC      H3S            12.8962670088       -2.9237831693      -14.3778238593  MEMB      73              0.0000000000
      9703        79  POPC      C24            12.0768411202       -1.5082852564      -12.9745919887  MEMB      73              0.0000000000
      9704        79  POPC      H4R            11.1816679266       -1.4264664308      -12.3216815294  MEMB      73              0.0000000000
      9705        79  POPC      H4S            12.4587443103       -0.4820363487      -13.1624327728  MEMB      73              0.0000000000
      9706        79  POPC      C25            13.1000194852       -2.1805198598      -12.0968869217  MEMB      73              0.0000000000
      9707        79  POPC      H5R            14.0400951598       -1.6447814163      -12.3490033930  MEMB      73              0.0000000000
      9708        79  POPC      H5S            13.2452536828       -3.2433518791      -12.3860512681  MEMB      73              0.0000000000
      9709        79  POPC      C26            12.7857800771       -2.3573330282      -10.6341770048  MEMB      73              0.0000000000
      9710        79  POPC      H6R            12.4896322968       -1.3542907474      -10.2593122319  MEMB      73              0.0000000000
      9711        79  POPC      H6S            13.7125365779       -2.6180408175      -10.0796721359  MEMB      73              0.0000000000
      9712        79  POPC      C27            11.7615641550       -3.3220177322      -10.3639839842  MEMB      73              0.0000000000
      9713        79  POPC      H7R            12.2131426233       -4.3293621453      -10.2388643257  MEMB      73              0.0000000000
      9714        79  POPC      H7S            11.1210913296       -3.4322246302      -11.2650779235  MEMB      73              0.0000000000
      9715        79  POPC      C28            10.9490274483       -3.1104045950       -9.0660170236  MEMB      73              0.0000000000
      9716        79  POPC      H8R            11.5664016077       -2.9172732607       -8.1627616707  MEMB      73              0.0000000000
      9717        79  POPC      H8S            10.3592582659       -4.0509245895       -9.0222532796  MEMB      73              0.0000000000
      9718        79  POPC      C29             9.9814445595       -1.9413966853       -9.2005946747  MEMB      73              0.0000000000
      9719        79  POPC      H91             9.5373985223       -1.7833114340      -10.1944918875  MEMB      73              0.0000000000
      9720        79  POPC      C210            9.7321196763       -1.0415361762       -8.2233053562  MEMB      73              0.0000000000
      9721        79  POPC      H101            9.0923297443       -0.1725807695       -8.4368137664  MEMB      73              0.0000000000
      9722        79  POPC      C211           10.2543395608       -0.8866563439       -6.7977568043  MEMB      73              0.0000000000
      9723        79  POPC      H11R           10.4398229712        0.2046956570       -6.7035904047  MEMB      73              0.0000000000
      9724        79  POPC      H11S           11.1841495438       -1.4389741178       -6.5433563775  MEMB      73              0.0000000000
      9725        79  POPC      C212            9.3457744149       -1.3453583655       -5.6786947752  MEMB      73              0.0000000000
      9726        79  POPC      H12R            8.3028364032       -1.0720802425       -5.9468749803  MEMB      73              0.0000000000
      9727        79  POPC      H12S            9.6433559299       -0.9028939241       -4.7040197196  MEMB      73              0.0000000000
      9728        79  POPC      C213            9.2753552876       -2.8965498879       -5.5420463034  MEMB      73              0.0000000000
      9729        79  POPC      H13R            8.9122533818       -3.2887762705       -6.5160258206  MEMB      73              0.0000000000
      9730        79  POPC      H13S            8.3460223220       -3.2429856610       -5.0414028890  MEMB      73              0.0000000000
      9731        79  POPC      C214           10.5629302371       -3.5987843791       -4.9826993250  MEMB      73              0.0000000000
      9732        79  POPC      H14R           10.8831128236       -2.9764882309       -4.1198254171  MEMB      73              0.0000000000
      9733        79  POPC      H14S           11.2361011555       -3.5646337838       -5.8658732286  MEMB      73              0.0000000000
      9734        79  POPC      C215           10.3993337826       -5.0747678470       -4.6916310543  MEMB      73              0.0000000000
      9735        79  POPC      H15R            9.7926469410       -5.5302676550       -5.5032791197  MEMB      73              0.0000000000
      9736        79  POPC      H15S            9.6875989676       -5.1373133240       -3.8408418375  MEMB      73              0.0000000000
      9737        79  POPC      C216           11.6692656207       -5.9440249649       -4.6157943341  MEMB      73              0.0000000000
      9738        79  POPC      H16R           12.3255053135       -5.9240706486       -5.5120493631  MEMB      73              0.0000000000
      9739        79  POPC      H16S           11.3735100880       -7.0146099537       -4.5893913597  MEMB      73              0.0000000000
      9740        79  POPC      C217           12.4779673088       -5.6911993013       -3.2986877053  MEMB      73              0.0000000000
      9741        79  POPC      H17R           11.8588771456       -6.0319455464       -2.4414021445  MEMB      73              0.0000000000
      9742        79  POPC      H17S           12.6147625450       -4.5999185152       -3.1414798427  MEMB      73              0.0000000000
      9743        79  POPC      C218           13.7925981207       -6.2824282620       -3.2086127829  MEMB      73              0.0000000000
      9744        79  POPC      H18R           14.5189168704       -5.7016510017       -3.8164601373  MEMB      73              0.0000000000
      9745        79  POPC      H18S           13.7727308457       -7.2201279936       -3.8041333065  MEMB      73              0.0000000000
      9746        79  POPC      H18T           14.2705623311       -6.4655138130       -2.2225335116  MEMB      73              0.0000000000
      9747        79  POPC      C33            14.2311822053       -7.2248949863      -12.4235781632  MEMB      73              0.0000000000
      9748        79  POPC      H3X            13.3092756953       -7.5289151291      -11.8832250251  MEMB      73              0.0000000000
      9749        79  POPC      H3Y            14.2192898513       -6.1196281666      -12.3114866536  MEMB      73              0.0000000000
      9750        79  POPC      C34            15.4895354342       -7.6486820326      -11.6695434724  MEMB      73              0.0000000000
      9751        79  POPC      H4X            16.3695498810       -7.1702641039      -12.1501805039  MEMB      73              0.0000000000
      9752        79  POPC      H4Y            15.6808643526       -8.7427001849      -11.6405869584  MEMB      73              0.0000000000
      9753        79  POPC      C35            15.4984356878       -7.2206397673      -10.1326498045  MEMB      73              0.0000000000
      9754        79  POPC      H5X            16.1595039127       -7.9810502748       -9.6645842661  MEMB      73              0.0000000000
      9755        79  POPC      H5Y            14.4802981924       -7.4610765420       -9.7586072284  MEMB      73              0.0000000000
      9756        79  POPC      C36            15.9234783687       -5.7699600767       -9.9278277093  MEMB      73              0.0000000000
      9757        79  POPC      H6X            15.1170974783       -5.0215331419      -10.0825145721  MEMB      73              0.0000000000
      9758        79  POPC      H6Y            16.7925332353       -5.5392401570      -10.5803858642  MEMB      73              0.0000000000
      9759        79  POPC      C37            16.4243967420       -5.5058474473       -8.5082706444  MEMB      73              0.0000000000
      9760        79  POPC      H7X            16.7713273739       -4.4531974255       -8.4315349835  MEMB      73              0.0000000000
      9761        79  POPC      H7Y            17.2909916076       -6.1114868541       -8.1668984061  MEMB      73              0.0000000000
      9762        79  POPC      C38            15.3978438672       -5.5384080445       -7.2997769913  MEMB      73              0.0000000000
      9763        79  POPC      H8X            15.9253190952       -5.4643786520       -6.3247842363  MEMB      73              0.0000000000
      9764        79  POPC      H8Y            14.8774940504       -6.5186451595       -7.2478888977  MEMB      73              0.0000000000
      9765        79  POPC      C39            14.3315823387       -4.4412117891       -7.2840384222  MEMB      73              0.0000000000
      9766        79  POPC      H9X            13.3767316064       -4.7257124500       -6.7924681331  MEMB      73              0.0000000000
      9767        79  POPC      H9Y            14.0608546072       -4.3380828642       -8.3566014613  MEMB      73              0.0000000000
      9768        79  POPC      C310           14.7228441807       -3.0669831000       -6.6880202345  MEMB      73              0.0000000000
      9769        79  POPC      H10X           14.0166667342       -2.3058187202       -7.0833218319  MEMB      73              0.0000000000
      9770        79  POPC      H10Y           15.7604865684       -2.9209504870       -7.0572006126  MEMB      73              0.0000000000
      9771        79  POPC      C311           14.7059753982       -3.0323124050       -5.1424714045  MEMB      73              0.0000000000
      9772        79  POPC      H11X           15.5679799395       -3.5920573630       -4.7206255541  MEMB      73              0.0000000000
      9773        79  POPC      H11Y           13.7875175233       -3.5191659993       -4.7503878721  MEMB      73              0.0000000000
      9774        79  POPC      C312           14.7767182606       -1.5852466368       -4.6962835618  MEMB      73              0.0000000000
      9775        79  POPC      H12X           13.7697088295       -1.1546433193       -4.8829223276  MEMB      73              0.0000000000
      9776        79  POPC      H12Y           15.6336696939       -1.0443026238       -5.1516243948  MEMB      73              0.0000000000
      9777        79  POPC      C313           15.0530573722       -1.4648267988       -3.1428733847  MEMB      73              0.0000000000
      9778        79  POPC      H13X           14.9565327533       -0.3975818654       -2.8496290198  MEMB      73              0.0000000000
      9779        79  POPC      H13Y           16.0028915248       -1.9727012990       -2.8704784061  MEMB      73              0.0000000000
      9780        79  POPC      C314           14.0209187800       -2.1419666802       -2.2721723656  MEMB      73              0.0000000000
      9781        79  POPC      H14X           14.4757472603       -2.3860301956       -1.2883610104  MEMB      73              0.0000000000
      9782        79  POPC      H14Y           13.8541511341       -3.1624836514       -2.6784415082  MEMB      73              0.0000000000
      9783        79  POPC      C315           12.7227616009       -1.3619205908       -2.0911123551  MEMB      73              0.0000000000
      9784        79  POPC      H15X           12.1722269524       -1.1828650882       -3.0393580880  MEMB      73              0.0000000000
      9785        79  POPC      H15Y           12.8061202376       -0.3483325028       -1.6438859896  MEMB      73              0.0000000000
      9786        79  POPC      C316           11.8777965433       -2.1144524079       -1.0526880028  MEMB      73              0.0000000000
      9787        79  POPC      H16X           11.6271321388       -3.0943124289       -1.5124297033  MEMB      73              0.0000000000
      9788        79  POPC      H16Y           10.9664701970       -1.5407586706       -0.7794107408  MEMB      73              0.0000000000
      9789        79  POPC      H16Z           12.3023289894       -2.2320424398       -0.0327544173  MEMB      73              0.0000000000
      9790        80  POPC      N              -6.2001680813       11.0555190999      -17.4095545846  MEMB      74              0.0000000000
      9791        80  POPC      C12            -5.3293180241       11.7238571897      -18.3999726883  MEMB      74              0.0000000000
      9792        80  POPC      H12A           -4.4812557666       11.0951992587      -18.6279631771  MEMB      74              0.0000000000
      9793        80  POPC      H12B           -4.9397238513       12.6497446650      -18.0033006862  MEMB      74              0.0000000000
      9794        80  POPC      C13            -7.1456021786       12.0461099357      -16.8655364110  MEMB      74              0.0000000000
      9795        80  POPC      H13A           -6.6538346232       12.8012539106      -16.2702865565  MEMB      74              0.0000000000
      9796        80  POPC      H13B           -7.6754647838       12.4821092693      -17.6995328858  MEMB      74              0.0000000000
      9797        80  POPC      H13C           -7.9096498832       11.5909261544      -16.2528056852  MEMB      74              0.0000000000
      9798        80  POPC      C14            -6.9202106529        9.8803213448      -18.0420020173  MEMB      74              0.0000000000
      9799        80  POPC      H14A           -7.4180917211       10.2153176820      -18.9399395598  MEMB      74              0.0000000000
      9800        80  POPC      H14B           -6.1544015435        9.1780942757      -18.3366440651  MEMB      74              0.0000000000
      9801        80  POPC      H14C           -7.6391495455        9.4816580880      -17.3415775754  MEMB      74              0.0000000000
      9802        80  POPC      C15            -5.4618674350       10.4161637379      -16.3059696706  MEMB      74              0.0000000000
      9803        80  POPC      H15A           -4.8167709354        9.7529579602      -16.8631131186  MEMB      74              0.0000000000
      9804        80  POPC      H15B           -6.1561797028        9.8173249480      -15.7352487424  MEMB      74              0.0000000000
      9805        80  POPC      H15C           -4.9163571361       11.1347560863      -15.7123001978  MEMB      74              0.0000000000
      9806        80  POPC      C11            -5.9827036137       12.0515267927      -19.7874954596  MEMB      74              0.0000000000
      9807        80  POPC      H11A           -5.9490540495       11.2021696293      -20.5028841651  MEMB      74              0.0000000000
      9808        80  POPC      H11B           -5.3624613122       12.8740479318      -20.2035234719  MEMB      74              0.0000000000
      9809        80  POPC      P              -7.8702178811       13.6610910484      -20.5274756230  MEMB      74              0.0000000000
      9810        80  POPC      O13            -9.1776202836       13.3367561869      -21.1618269709  MEMB      74              0.0000000000
      9811        80  POPC      O14            -6.7609637279       14.2214116335      -21.3303824870  MEMB      74              0.0000000000
      9812        80  POPC      O12            -7.3448105226       12.3848062093      -19.7963735447  MEMB      74              0.0000000000
      9813        80  POPC      O11            -8.2132737472       14.6108988195      -19.3734104945  MEMB      74              0.0000000000
      9814        80  POPC      C1             -9.4118930094       14.5498731642      -18.6039789715  MEMB      74              0.0000000000
      9815        80  POPC      HA             -9.4189646898       13.5629839171      -18.0937626470  MEMB      74              0.0000000000
      9816        80  POPC      HB            -10.3811962819       14.7683793841      -19.1009972064  MEMB      74              0.0000000000
      9817        80  POPC      C2             -9.1894801992       15.5488900203      -17.4386501103  MEMB      74              0.0000000000
      9818        80  POPC      HS             -9.4813903810       16.5447677636      -17.8353071565  MEMB      74              0.0000000000
      9819        80  POPC      O21            -7.8075212540       15.4213847534      -17.0531700584  MEMB      74              0.0000000000
      9820        80  POPC      C21            -7.2934337585       16.3902881357      -16.4284527826  MEMB      74              0.0000000000
      9821        80  POPC      O22            -7.6869155802       17.5259889898      -16.3874215900  MEMB      74              0.0000000000
      9822        80  POPC      C22            -6.0604129259       15.9572144917      -15.6985576025  MEMB      74              0.0000000000
      9823        80  POPC      H2R            -5.6978768093       16.8743257174      -15.1868973060  MEMB      74              0.0000000000
      9824        80  POPC      H2S            -5.4137854326       15.4530376271      -16.4482238322  MEMB      74              0.0000000000
      9825        80  POPC      C3            -10.1743308649       15.3484085092      -16.1760281831  MEMB      74              0.0000000000
      9826        80  POPC      HX            -11.1941494855       15.6708127395      -16.4766047704  MEMB      74              0.0000000000
      9827        80  POPC      HY             -9.7982596056       16.0968134621      -15.4461095992  MEMB      74              0.0000000000
      9828        80  POPC      O31           -10.0313624746       14.0235551841      -15.6458327283  MEMB      74              0.0000000000
      9829        80  POPC      C31           -10.9997327591       13.1596692808      -15.8352553747  MEMB      74              0.0000000000
      9830        80  POPC      O32           -12.0969507758       13.4694815857      -16.3317077763  MEMB      74              0.0000000000
      9831        80  POPC      C32           -10.5728409300       11.8196937228      -15.3213158391  MEMB      74              0.0000000000
      9832        80  POPC      H2X            -9.4696491658       11.7426396311      -15.4278605932  MEMB      74              0.0000000000
      9833        80  POPC      H2Y           -10.9849795322       11.0652532489      -16.0250785600  MEMB      74              0.0000000000
      9834        80  POPC      C23            -6.3805381968       14.8882040557      -14.6382785566  MEMB      74              0.0000000000
      9835        80  POPC      H3R            -5.3969581203       14.6754450965      -14.1675083040  MEMB      74              0.0000000000
      9836        80  POPC      H3S            -6.8225167891       13.9594285751      -15.0582213454  MEMB      74              0.0000000000
      9837        80  POPC      C24            -7.2461856124       15.4801623093      -13.5595369915  MEMB      74              0.0000000000
      9838        80  POPC      H4R            -8.2195975926       15.5828498249      -14.0851278077  MEMB      74              0.0000000000
      9839        80  POPC      H4S            -6.8973776392       16.4978596944      -13.2821460796  MEMB      74              0.0000000000
      9840        80  POPC      C25            -7.1376824237       14.6702171481      -12.2958709616  MEMB      74              0.0000000000
      9841        80  POPC      H5R            -6.0313471706       14.6503112946      -12.1961361086  MEMB      74              0.0000000000
      9842        80  POPC      H5S            -7.4371242278       13.6004907851      -12.3143410785  MEMB      74              0.0000000000
      9843        80  POPC      C26            -7.6621280912       15.3778796348      -10.9697375785  MEMB      74              0.0000000000
      9844        80  POPC      H6R            -8.5831346320       15.9464702751      -11.2202827376  MEMB      74              0.0000000000
      9845        80  POPC      H6S            -6.8122118819       16.0537401132      -10.7348426191  MEMB      74              0.0000000000
      9846        80  POPC      C27            -8.0152441210       14.4034295915       -9.7468459330  MEMB      74              0.0000000000
      9847        80  POPC      H7R            -7.0205199813       14.0373068165       -9.4139804880  MEMB      74              0.0000000000
      9848        80  POPC      H7S            -8.6805636611       13.6325951862      -10.1912390591  MEMB      74              0.0000000000
      9849        80  POPC      C28            -8.7761470419       15.1286358694       -8.6433499460  MEMB      74              0.0000000000
      9850        80  POPC      H8R            -9.1474786499       14.3857200862       -7.9054408723  MEMB      74              0.0000000000
      9851        80  POPC      H8S            -9.7424964215       15.5262408449       -9.0207084664  MEMB      74              0.0000000000
      9852        80  POPC      C29            -7.9545163480       16.2775903151       -8.0730557439  MEMB      74              0.0000000000
      9853        80  POPC      H91            -7.3532038433       16.8010516534       -8.8309545306  MEMB      74              0.0000000000
      9854        80  POPC      C210           -7.7228630430       16.4621805169       -6.7425244539  MEMB      74              0.0000000000
      9855        80  POPC      H101           -7.1696903718       17.3329564943       -6.3607531236  MEMB      74              0.0000000000
      9856        80  POPC      C211           -8.2697615252       15.5212383860       -5.7253615450  MEMB      74              0.0000000000
      9857        80  POPC      H11R           -7.8178464144       15.6604459840       -4.7200187335  MEMB      74              0.0000000000
      9858        80  POPC      H11S           -8.1458506938       14.4616531268       -6.0355980583  MEMB      74              0.0000000000
      9859        80  POPC      C212           -9.8577747292       15.7585429549       -5.6325074496  MEMB      74              0.0000000000
      9860        80  POPC      H12R          -10.3693991005       15.5718387987       -6.6008573953  MEMB      74              0.0000000000
      9861        80  POPC      H12S          -10.0840733867       16.8057942201       -5.3386108026  MEMB      74              0.0000000000
      9862        80  POPC      C213          -10.5359076662       14.8120353178       -4.5316260830  MEMB      74              0.0000000000
      9863        80  POPC      H13R           -9.9183694979       14.9917906743       -3.6257254870  MEMB      74              0.0000000000
      9864        80  POPC      H13S          -10.4811177195       13.7558979624       -4.8720566142  MEMB      74              0.0000000000
      9865        80  POPC      C214          -11.9493894052       15.1658666397       -4.2050023700  MEMB      74              0.0000000000
      9866        80  POPC      H14R          -12.5289046191       15.3525674257       -5.1343162292  MEMB      74              0.0000000000
      9867        80  POPC      H14S          -12.1066330017       16.1062272068       -3.6346358608  MEMB      74              0.0000000000
      9868        80  POPC      C215          -12.6988705842       14.1466121405       -3.3722845971  MEMB      74              0.0000000000
      9869        80  POPC      H15R          -12.6920073134       13.2605478893       -4.0424809653  MEMB      74              0.0000000000
      9870        80  POPC      H15S          -13.7612835277       14.3595838586       -3.1268385856  MEMB      74              0.0000000000
      9871        80  POPC      C216          -12.0202945842       13.6759281095       -2.0390454113  MEMB      74              0.0000000000
      9872        80  POPC      H16R          -11.8350854159       14.5563337232       -1.3871982828  MEMB      74              0.0000000000
      9873        80  POPC      H16S          -10.9816494433       13.3370941646       -2.2408582601  MEMB      74              0.0000000000
      9874        80  POPC      C217          -12.7620450203       12.5592989149       -1.3111571320  MEMB      74              0.0000000000
      9875        80  POPC      H17R          -13.8484206073       12.7829918039       -1.2473535710  MEMB      74              0.0000000000
      9876        80  POPC      H17S          -12.3085640612       12.5149740486       -0.2978878702  MEMB      74              0.0000000000
      9877        80  POPC      C218          -12.5855339160       11.1533589552       -1.8684972113  MEMB      74              0.0000000000
      9878        80  POPC      H18R          -12.9810817019       10.4344687076       -1.1194583018  MEMB      74              0.0000000000
      9879        80  POPC      H18S          -11.5263379891       10.8606582571       -2.0320546136  MEMB      74              0.0000000000
      9880        80  POPC      H18T          -13.0459534238       11.1057107607       -2.8784800004  MEMB      74              0.0000000000
      9881        80  POPC      C33           -11.0318978830       11.6822758620      -13.8848392875  MEMB      74              0.0000000000
      9882        80  POPC      H3X           -12.1122331787       11.9314825813      -13.8134738186  MEMB      74              0.0000000000
      9883        80  POPC      H3Y           -10.5683956424       12.4175831307      -13.1928783756  MEMB      74              0.0000000000
      9884        80  POPC      C34           -10.7249972982       10.2750076702      -13.3297256582  MEMB      74              0.0000000000
      9885        80  POPC      H4X            -9.7442792649        9.8771799494      -13.6677286322  MEMB      74              0.0000000000
      9886        80  POPC      H4Y           -11.5890126412        9.6462686269      -13.6338391263  MEMB      74              0.0000000000
      9887        80  POPC      C35           -10.7876101269       10.3125689358      -11.7640079859  MEMB      74              0.0000000000
      9888        80  POPC      H5X           -11.3274282315        9.4145084869      -11.3946785812  MEMB      74              0.0000000000
      9889        80  POPC      H5Y           -11.3695813616       11.1825733417      -11.3915531344  MEMB      74              0.0000000000
      9890        80  POPC      C36            -9.3471257396       10.3585034842      -11.0568105382  MEMB      74              0.0000000000
      9891        80  POPC      H6X            -8.7716694791       11.0894104133      -11.6642202074  MEMB      74              0.0000000000
      9892        80  POPC      H6Y            -8.8586501337        9.3615606085      -11.0994446485  MEMB      74              0.0000000000
      9893        80  POPC      C37            -9.4230782456       10.8267233499       -9.6407750201  MEMB      74              0.0000000000
      9894        80  POPC      H7X           -10.1839348100       10.3167793519       -9.0119852437  MEMB      74              0.0000000000
      9895        80  POPC      H7Y            -9.6464468385       11.9080773112       -9.5178885396  MEMB      74              0.0000000000
      9896        80  POPC      C38            -8.0606662416       10.5407072404       -8.9172400699  MEMB      74              0.0000000000
      9897        80  POPC      H8X            -7.2660839870       10.9304915198       -9.5888264781  MEMB      74              0.0000000000
      9898        80  POPC      H8Y            -7.9108807662        9.4403320837       -8.9497937642  MEMB      74              0.0000000000
      9899        80  POPC      C39            -7.7787931864       11.1970778650       -7.5329830901  MEMB      74              0.0000000000
      9900        80  POPC      H9X            -8.6080301580       10.9432498505       -6.8385352044  MEMB      74              0.0000000000
      9901        80  POPC      H9Y            -7.6332617328       12.2942532177       -7.6296680361  MEMB      74              0.0000000000
      9902        80  POPC      C310           -6.5820342487       10.6486335492       -6.6987899367  MEMB      74              0.0000000000
      9903        80  POPC      H10X           -5.6134916962       11.0982448716       -7.0055398546  MEMB      74              0.0000000000
      9904        80  POPC      H10Y           -6.3556236865        9.5713260777       -6.8486827185  MEMB      74              0.0000000000
      9905        80  POPC      C311           -6.8240747753       10.7105535388       -5.1644276907  MEMB      74              0.0000000000
      9906        80  POPC      H11X           -7.7219041157       10.0988198919       -4.9320367159  MEMB      74              0.0000000000
      9907        80  POPC      H11Y           -7.0446918895       11.7448371838       -4.8239775398  MEMB      74              0.0000000000
      9908        80  POPC      C312           -5.7992668554        9.9652067595       -4.3380068922  MEMB      74              0.0000000000
      9909        80  POPC      H12X           -5.7471187698        8.9141354376       -4.6941675557  MEMB      74              0.0000000000
      9910        80  POPC      H12Y           -6.1057189347       10.0123652946       -3.2711499110  MEMB      74              0.0000000000
      9911        80  POPC      C313           -4.3491786799       10.4799133539       -4.6411286161  MEMB      74              0.0000000000
      9912        80  POPC      H13X           -4.0052072934       10.2696763641       -5.6764082315  MEMB      74              0.0000000000
      9913        80  POPC      H13Y           -3.7624807250        9.7706130947       -4.0190350489  MEMB      74              0.0000000000
      9914        80  POPC      C314           -3.9689433363       11.9085081563       -4.2304640045  MEMB      74              0.0000000000
      9915        80  POPC      H14X           -4.7229891635       12.6423983155       -4.5870324599  MEMB      74              0.0000000000
      9916        80  POPC      H14Y           -2.9180006192       12.1380598828       -4.5082166825  MEMB      74              0.0000000000
      9917        80  POPC      C315           -3.9704537591       12.1553850959       -2.7192304269  MEMB      74              0.0000000000
      9918        80  POPC      H15X           -3.3862244477       11.3774967745       -2.1826798535  MEMB      74              0.0000000000
      9919        80  POPC      H15Y           -5.0373571212       12.0441338746       -2.4299883906  MEMB      74              0.0000000000
      9920        80  POPC      C316           -3.6358644486       13.5828952551       -2.2521397962  MEMB      74              0.0000000000
      9921        80  POPC      H16X           -3.6951449329       13.6471886602       -1.1445858733  MEMB      74              0.0000000000
      9922        80  POPC      H16Y           -4.3451505629       14.3606966191       -2.6074696912  MEMB      74              0.0000000000
      9923        80  POPC      H16Z           -2.6287850823       13.8956995053       -2.6018028308  MEMB      74              0.0000000000
      9924        81  POPC      N             -15.2686810648       -1.5056239851      -21.0582848452  MEMB      75              0.0000000000
      9925        81  POPC      C12           -15.6873791906       -0.9364988420      -19.7568082589  MEMB      75              0.0000000000
      9926        81  POPC      H12A          -16.5599927098       -1.5253124101      -19.5154699771  MEMB      75              0.0000000000
      9927        81  POPC      H12B          -15.8032477904        0.1137712947      -19.9802069662  MEMB      75              0.0000000000
      9928        81  POPC      C13           -13.9139466556       -0.9815877922      -21.5148034604  MEMB      75              0.0000000000
      9929        81  POPC      H13A          -13.1746356788       -0.9913452009      -20.7275778223  MEMB      75              0.0000000000
      9930        81  POPC      H13B          -13.5929490346       -1.7115104398      -22.2432082848  MEMB      75              0.0000000000
      9931        81  POPC      H13C          -14.1444993951        0.0409143782      -21.7750625301  MEMB      75              0.0000000000
      9932        81  POPC      C14           -15.2083984696       -2.9725216419      -20.9984430356  MEMB      75              0.0000000000
      9933        81  POPC      H14A          -16.1906696695       -3.2811606655      -20.6724286681  MEMB      75              0.0000000000
      9934        81  POPC      H14B          -15.1051788718       -3.4045601066      -21.9828659948  MEMB      75              0.0000000000
      9935        81  POPC      H14C          -14.4092422248       -3.2722419799      -20.3366901180  MEMB      75              0.0000000000
      9936        81  POPC      C15           -16.4162388140       -1.2779120311      -22.0501764734  MEMB      75              0.0000000000
      9937        81  POPC      H15A          -16.4841205873       -0.2113144295      -22.2056160474  MEMB      75              0.0000000000
      9938        81  POPC      H15B          -17.2885914316       -1.7414097928      -21.6136324172  MEMB      75              0.0000000000
      9939        81  POPC      H15C          -16.1211058735       -1.6531721172      -23.0189265129  MEMB      75              0.0000000000
      9940        81  POPC      C11           -14.7253543038       -1.0807503219      -18.5892608715  MEMB      75              0.0000000000
      9941        81  POPC      H11A          -15.3065515858       -0.7671583790      -17.6958456309  MEMB      75              0.0000000000
      9942        81  POPC      H11B          -13.9536912077       -0.3016231115      -18.7676364480  MEMB      75              0.0000000000
      9943        81  POPC      P             -13.2900259133       -2.5606394513      -17.0005804731  MEMB      75              0.0000000000
      9944        81  POPC      O13           -13.2731387001       -1.3101701314      -16.2414777408  MEMB      75              0.0000000000
      9945        81  POPC      O14           -11.9904299463       -3.1890036764      -17.2523365471  MEMB      75              0.0000000000
      9946        81  POPC      O12           -14.1385468650       -2.3820146629      -18.3461089474  MEMB      75              0.0000000000
      9947        81  POPC      O11           -14.2180509740       -3.4939546024      -16.1917193517  MEMB      75              0.0000000000
      9948        81  POPC      C1            -14.7493828478       -4.6231060919      -16.8438612434  MEMB      75              0.0000000000
      9949        81  POPC      HA            -13.9355159388       -5.3527402737      -17.0427975509  MEMB      75              0.0000000000
      9950        81  POPC      HB            -15.2653195279       -4.2325806733      -17.7469782378  MEMB      75              0.0000000000
      9951        81  POPC      C2            -15.8521073254       -5.4257191017      -16.0253938464  MEMB      75              0.0000000000
      9952        81  POPC      HS            -16.7407152171       -5.7818568516      -16.5891870462  MEMB      75              0.0000000000
      9953        81  POPC      O21           -16.4276199299       -4.7533161207      -14.8892414994  MEMB      75              0.0000000000
      9954        81  POPC      C21           -17.4523355460       -3.9429421851      -15.1001013249  MEMB      75              0.0000000000
      9955        81  POPC      O22           -17.8873915395       -3.4586930913      -16.1542731271  MEMB      75              0.0000000000
      9956        81  POPC      C22           -17.8763201970       -3.4306743004      -13.7238887542  MEMB      75              0.0000000000
      9957        81  POPC      H2R           -17.6750916658       -4.2837268118      -13.0411515664  MEMB      75              0.0000000000
      9958        81  POPC      H2S           -18.9871923562       -3.4243264386      -13.7082906049  MEMB      75              0.0000000000
      9959        81  POPC      C3            -15.1888837350       -6.7367016730      -15.4732738623  MEMB      75              0.0000000000
      9960        81  POPC      HX            -14.9021787206       -7.4161516768      -16.3042183486  MEMB      75              0.0000000000
      9961        81  POPC      HY            -16.0124909246       -7.1772139891      -14.8716586418  MEMB      75              0.0000000000
      9962        81  POPC      O31           -14.0754709890       -6.3496976726      -14.6743412403  MEMB      75              0.0000000000
      9963        81  POPC      C31           -14.3513760765       -6.1892955724      -13.3772922006  MEMB      75              0.0000000000
      9964        81  POPC      O32           -15.3155813853       -6.4514771083      -12.7320244608  MEMB      75              0.0000000000
      9965        81  POPC      C32           -13.1720349762       -5.4388503520      -12.7542098585  MEMB      75              0.0000000000
      9966        81  POPC      H2X           -12.2269052423       -5.9770062004      -12.9810106452  MEMB      75              0.0000000000
      9967        81  POPC      H2Y           -13.3127297875       -5.4128152428      -11.6524620361  MEMB      75              0.0000000000
      9968        81  POPC      C23           -17.1983260239       -2.2717158069      -13.0626478769  MEMB      75              0.0000000000
      9969        81  POPC      H3R           -17.3474601582       -1.4111758343      -13.7493436166  MEMB      75              0.0000000000
      9970        81  POPC      H3S           -16.1276636185       -2.5217043831      -12.9029333416  MEMB      75              0.0000000000
      9971        81  POPC      C24           -17.8400485452       -1.9592628139      -11.6650568962  MEMB      75              0.0000000000
      9972        81  POPC      H4R           -17.5999858035       -2.6917558896      -10.8649665594  MEMB      75              0.0000000000
      9973        81  POPC      H4S           -18.9444323453       -1.9850487726      -11.7833478806  MEMB      75              0.0000000000
      9974        81  POPC      C25           -17.5581183271       -0.5063082461      -11.2319749380  MEMB      75              0.0000000000
      9975        81  POPC      H5R           -17.7384907950        0.0885038521      -12.1528362216  MEMB      75              0.0000000000
      9976        81  POPC      H5S           -16.4813936923       -0.4782940071      -10.9595781141  MEMB      75              0.0000000000
      9977        81  POPC      C26           -18.4049448698        0.0779155219      -10.0633085952  MEMB      75              0.0000000000
      9978        81  POPC      H6R           -19.4021601358        0.3504586713      -10.4702521078  MEMB      75              0.0000000000
      9979        81  POPC      H6S           -17.8499287414        0.9896313804       -9.7550032352  MEMB      75              0.0000000000
      9980        81  POPC      C27           -18.5031068830       -0.7964536228       -8.7946745960  MEMB      75              0.0000000000
      9981        81  POPC      H7R           -19.3474134227       -1.5184905616       -8.7832646982  MEMB      75              0.0000000000
      9982        81  POPC      H7S           -18.7467483260       -0.0171701293       -8.0412312487  MEMB      75              0.0000000000
      9983        81  POPC      C28           -17.1154852562       -1.4777467811       -8.3703934278  MEMB      75              0.0000000000
      9984        81  POPC      H8R           -16.4246929613       -0.6116934197       -8.2862594831  MEMB      75              0.0000000000
      9985        81  POPC      H8S           -16.7652242976       -2.1817001702       -9.1553060817  MEMB      75              0.0000000000
      9986        81  POPC      C29           -17.3405940968       -2.1606696867       -7.0727390396  MEMB      75              0.0000000000
      9987        81  POPC      H91           -17.5749878934       -1.5545289248       -6.1852407084  MEMB      75              0.0000000000
      9988        81  POPC      C210          -17.4341825745       -3.4905176849       -6.8299534455  MEMB      75              0.0000000000
      9989        81  POPC      H101          -17.5161855929       -3.9576105169       -5.8374323437  MEMB      75              0.0000000000
      9990        81  POPC      C211          -17.2334305597       -4.4929535628       -7.9635481725  MEMB      75              0.0000000000
      9991        81  POPC      H11R          -17.6179454316       -4.1282820628       -8.9400138611  MEMB      75              0.0000000000
      9992        81  POPC      H11S          -18.0301935872       -5.2006302285       -7.6494087141  MEMB      75              0.0000000000
      9993        81  POPC      C212          -15.8780176337       -5.1636330083       -8.1640675413  MEMB      75              0.0000000000
      9994        81  POPC      H12R          -15.1744295983       -4.5518948484       -8.7682699070  MEMB      75              0.0000000000
      9995        81  POPC      H12S          -16.0032276875       -5.8865730881       -8.9983343403  MEMB      75              0.0000000000
      9996        81  POPC      C213          -15.3232196700       -5.9133058162       -6.9449416200  MEMB      75              0.0000000000
      9997        81  POPC      H13R          -14.6541986153       -6.6974768059       -7.3594384437  MEMB      75              0.0000000000
      9998        81  POPC      H13S          -16.1065635791       -6.4319322625       -6.3518815424  MEMB      75              0.0000000000
      9999        81  POPC      C214          -14.5482037071       -5.0229926005       -6.0109289071  MEMB      75              0.0000000000
     10000        81  POPC      H14R          -15.2876758830       -4.5006361484       -5.3669988938  MEMB      75              0.0000000000
     10001        81  POPC      H14S          -13.9589007201       -4.1964577279       -6.4624630986  MEMB      75              0.0000000000
     10002        81  POPC      C215          -13.5078014909       -5.6482252661       -5.0628992549  MEMB      75              0.0000000000
     10003        81  POPC      H15R          -12.7396093385       -4.9084757864       -4.7514953313  MEMB      75              0.0000000000
     10004        81  POPC      H15S          -12.9788760831       -6.4093296053       -5.6754998647  MEMB      75              0.0000000000
     10005        81  POPC      C216          -14.0632400170       -6.4174874454       -3.8275178465  MEMB      75              0.0000000000
     10006        81  POPC      H16R          -15.1739478690       -6.3920719001       -3.8293075284  MEMB      75              0.0000000000
     10007        81  POPC      H16S          -13.6112639945       -6.0358468092       -2.8870980415  MEMB      75              0.0000000000
     10008        81  POPC      C217          -13.7205659013       -7.9284021398       -3.7364169122  MEMB      75              0.0000000000
     10009        81  POPC      H17R          -12.6296335728       -7.9401476925       -3.9462980224  MEMB      75              0.0000000000
     10010        81  POPC      H17S          -14.1931821157       -8.5360590306       -4.5374836012  MEMB      75              0.0000000000
     10011        81  POPC      C218          -14.0064835886       -8.6668384174       -2.4379628946  MEMB      75              0.0000000000
     10012        81  POPC      H18R          -13.8422030460       -9.7627726792       -2.5170864050  MEMB      75              0.0000000000
     10013        81  POPC      H18S          -15.0570781142       -8.4940901759       -2.1205830488  MEMB      75              0.0000000000
     10014        81  POPC      H18T          -13.2999682781       -8.2453948180       -1.6912755976  MEMB      75              0.0000000000
     10015        81  POPC      C33           -12.9050111884       -4.0872744708      -13.3816717232  MEMB      75              0.0000000000
     10016        81  POPC      H3X           -13.7679591023       -3.3881197171      -13.3529588934  MEMB      75              0.0000000000
     10017        81  POPC      H3Y           -12.6461153759       -4.3195512877      -14.4368217377  MEMB      75              0.0000000000
     10018        81  POPC      C34           -11.6552931460       -3.3292516282      -12.8306565218  MEMB      75              0.0000000000
     10019        81  POPC      H4X           -11.3393971371       -2.6151867672      -13.6209992696  MEMB      75              0.0000000000
     10020        81  POPC      H4Y           -10.8078514144       -4.0350008461      -12.6961900471  MEMB      75              0.0000000000
     10021        81  POPC      C35           -11.8398096482       -2.5153815069      -11.5356744024  MEMB      75              0.0000000000
     10022        81  POPC      H5X           -12.0720982537       -3.3310704665      -10.8180291451  MEMB      75              0.0000000000
     10023        81  POPC      H5Y           -12.7620363043       -1.8972379081      -11.5771186994  MEMB      75              0.0000000000
     10024        81  POPC      C36           -10.7486161330       -1.6119448826      -10.9941568235  MEMB      75              0.0000000000
     10025        81  POPC      H6X           -11.1244283347       -0.5695281381      -11.0744902958  MEMB      75              0.0000000000
     10026        81  POPC      H6Y            -9.8138447444       -1.7895366774      -11.5677283962  MEMB      75              0.0000000000
     10027        81  POPC      C37           -10.3513062196       -1.8576488009       -9.5507867619  MEMB      75              0.0000000000
     10028        81  POPC      H7X            -9.4651823587       -1.2308725258       -9.3136014345  MEMB      75              0.0000000000
     10029        81  POPC      H7Y           -10.0644566385       -2.9306631073       -9.5768369843  MEMB      75              0.0000000000
     10030        81  POPC      C38           -11.4859172139       -1.5912773822       -8.5963740711  MEMB      75              0.0000000000
     10031        81  POPC      H8X           -12.3056596976       -2.2182216308       -9.0078154655  MEMB      75              0.0000000000
     10032        81  POPC      H8Y           -11.7834835319       -0.5285696944       -8.7245440937  MEMB      75              0.0000000000
     10033        81  POPC      C39           -11.3200073203       -1.9200308040       -7.0867953942  MEMB      75              0.0000000000
     10034        81  POPC      H9X           -10.2533508636       -1.8592331346       -6.7820522431  MEMB      75              0.0000000000
     10035        81  POPC      H9Y           -11.7347748322       -2.9217317892       -6.8441343206  MEMB      75              0.0000000000
     10036        81  POPC      C310          -12.0743658631       -0.9192297891       -6.0926818561  MEMB      75              0.0000000000
     10037        81  POPC      H10X          -11.5833692659        0.0762732846       -6.0455918810  MEMB      75              0.0000000000
     10038        81  POPC      H10Y          -11.9311776141       -1.4303246692       -5.1166692578  MEMB      75              0.0000000000
     10039        81  POPC      C311          -13.5341586606       -0.7651400739       -6.4509786604  MEMB      75              0.0000000000
     10040        81  POPC      H11X          -13.8938956659       -1.7960268819       -6.6563631396  MEMB      75              0.0000000000
     10041        81  POPC      H11Y          -13.5682943449       -0.1828115925       -7.3965210510  MEMB      75              0.0000000000
     10042        81  POPC      C312          -14.3966848674       -0.0996801332       -5.3470528970  MEMB      75              0.0000000000
     10043        81  POPC      H12X          -15.3594220908        0.2054671447       -5.8100246869  MEMB      75              0.0000000000
     10044        81  POPC      H12Y          -13.9528009296        0.8688769396       -5.0321160875  MEMB      75              0.0000000000
     10045        81  POPC      C313          -14.9923740868       -0.9063210583       -4.1821735301  MEMB      75              0.0000000000
     10046        81  POPC      H13X          -15.4049687911       -1.8832664220       -4.5133296457  MEMB      75              0.0000000000
     10047        81  POPC      H13Y          -15.7007744683       -0.2110872423       -3.6830341411  MEMB      75              0.0000000000
     10048        81  POPC      C314          -13.9622579540       -1.1077881190       -3.0571654353  MEMB      75              0.0000000000
     10049        81  POPC      H14X          -13.5925220350       -0.0741572350       -2.8862173586  MEMB      75              0.0000000000
     10050        81  POPC      H14Y          -13.1279149609       -1.7807305498       -3.3492976483  MEMB      75              0.0000000000
     10051        81  POPC      C315          -14.7207274358       -1.6357564316       -1.8485001315  MEMB      75              0.0000000000
     10052        81  POPC      H15X          -15.4206720484       -0.8677245444       -1.4554037343  MEMB      75              0.0000000000
     10053        81  POPC      H15Y          -13.9656830499       -1.8006442470       -1.0503526665  MEMB      75              0.0000000000
     10054        81  POPC      C316          -15.5882455337       -2.8893736297       -2.0131252301  MEMB      75              0.0000000000
     10055        81  POPC      H16X          -15.0425830718       -3.6604999239       -2.5978790699  MEMB      75              0.0000000000
     10056        81  POPC      H16Y          -16.4430151868       -2.6631989815       -2.6858322975  MEMB      75              0.0000000000
     10057        81  POPC      H16Z          -16.0378462105       -3.2647290653       -1.0690448353  MEMB      75              0.0000000000
     10058        82  POPS      N              13.9096598477        8.9553014974      -19.4014548929  MEMB      76              0.0000000000
     10059        82  POPS      HN1            14.4850425164        9.8014988143      -19.2157533049  MEMB      76              0.0000000000
     10060        82  POPS      HN2            13.3646201497        9.0692431337      -20.2798333823  MEMB      76              0.0000000000
     10061        82  POPS      HN3            13.2646731411        8.6797195379      -18.6335703248  MEMB      76              0.0000000000
     10062        82  POPS      C12            14.8568660512        7.7842174897      -19.5496175322  MEMB      76              0.0000000000
     10063        82  POPS      H12A           15.3381804119        7.6262649517      -18.5957897119  MEMB      76              0.0000000000
     10064        82  POPS      C13            16.0791042674        7.9179979034      -20.5128064872  MEMB      76              0.0000000000
     10065        82  POPS      O13A           16.1643876200        8.9473365428      -21.1899275052  MEMB      76              0.0000000000
     10066        82  POPS      O13B           16.7809722880        6.8529393974      -20.6491435237  MEMB      76              0.0000000000
     10067        82  POPS      C11            14.0677384979        6.5579724397      -19.8099607212  MEMB      76              0.0000000000
     10068        82  POPS      H11A           14.6693527098        5.6244482667      -19.8401940619  MEMB      76              0.0000000000
     10069        82  POPS      H11B           13.5933638655        6.7231613396      -20.8009210798  MEMB      76              0.0000000000
     10070        82  POPS      P              13.2941596539        5.4662895521      -17.5807025064  MEMB      76              0.0000000000
     10071        82  POPS      O13            14.5868856267        5.8754485227      -17.0317894494  MEMB      76              0.0000000000
     10072        82  POPS      O14            13.0970687901        4.0288093416      -17.8069743107  MEMB      76              0.0000000000
     10073        82  POPS      O12            13.0247683632        6.2293708811      -18.9012538219  MEMB      76              0.0000000000
     10074        82  POPS      O11            12.1476150912        6.0510622158      -16.5663692167  MEMB      76              0.0000000000
     10075        82  POPS      C1             11.5788838640        7.3370978690      -16.8500564096  MEMB      76              0.0000000000
     10076        82  POPS      HA             10.5112548598        7.3464773968      -16.5428083431  MEMB      76              0.0000000000
     10077        82  POPS      HB             11.5811990589        7.4931358966      -17.9500417981  MEMB      76              0.0000000000
     10078        82  POPS      C2             12.2447533426        8.5319695586      -16.0580001903  MEMB      76              0.0000000000
     10079        82  POPS      HS             11.7310341415        9.4897876120      -16.2882132850  MEMB      76              0.0000000000
     10080        82  POPS      O21            13.6401381935        8.5638370981      -16.4475102427  MEMB      76              0.0000000000
     10081        82  POPS      C21            14.4530422265        9.4700820765      -16.0848910627  MEMB      76              0.0000000000
     10082        82  POPS      O22            14.1931647731       10.5519570248      -15.6557993746  MEMB      76              0.0000000000
     10083        82  POPS      C22            15.9521559929        9.0666795376      -16.0081442456  MEMB      76              0.0000000000
     10084        82  POPS      H2R            16.6197671154        9.9531460255      -15.9552889841  MEMB      76              0.0000000000
     10085        82  POPS      H2S            16.3175391549        8.5247613146      -16.9065545072  MEMB      76              0.0000000000
     10086        82  POPS      C3             12.1850409081        8.2911519866      -14.5216818359  MEMB      76              0.0000000000
     10087        82  POPS      HX             11.1328480585        8.2958779748      -14.1650464902  MEMB      76              0.0000000000
     10088        82  POPS      HY             12.6970140850        9.1600065166      -14.0555313362  MEMB      76              0.0000000000
     10089        82  POPS      O31            12.9339258715        7.1119471622      -14.0853859491  MEMB      76              0.0000000000
     10090        82  POPS      C31            12.9457302312        7.0001946054      -12.7268714408  MEMB      76              0.0000000000
     10091        82  POPS      O32            12.5038894320        7.7477058338      -11.9292868875  MEMB      76              0.0000000000
     10092        82  POPS      C32            13.7470133098        5.7292764428      -12.4393797078  MEMB      76              0.0000000000
     10093        82  POPS      H2X            14.8234510643        5.9588579304      -12.5906909708  MEMB      76              0.0000000000
     10094        82  POPS      H2Y            13.5665349910        4.9802329118      -13.2398061148  MEMB      76              0.0000000000
     10095        82  POPS      C23            16.1422836464        8.0822589291      -14.8205126352  MEMB      76              0.0000000000
     10096        82  POPS      H3R            15.6437690324        7.1346998638      -15.1170523144  MEMB      76              0.0000000000
     10097        82  POPS      H3S            15.6112100683        8.5153579251      -13.9460370136  MEMB      76              0.0000000000
     10098        82  POPS      C24            17.6492060150        7.7823986859      -14.4195860569  MEMB      76              0.0000000000
     10099        82  POPS      H4R            18.1070713333        8.7917229734      -14.3424829616  MEMB      76              0.0000000000
     10100        82  POPS      H4S            18.2590275144        7.3487918295      -15.2408187974  MEMB      76              0.0000000000
     10101        82  POPS      C25            17.7543105970        7.0249356204      -13.1055528540  MEMB      76              0.0000000000
     10102        82  POPS      H5R            18.7755388639        6.6465719331      -12.8858833821  MEMB      76              0.0000000000
     10103        82  POPS      H5S            17.0439251151        6.1728549243      -13.0452847421  MEMB      76              0.0000000000
     10104        82  POPS      C26            17.3714068510        7.8661943184      -11.8501718562  MEMB      76              0.0000000000
     10105        82  POPS      H6R            17.3299966904        7.3230817193      -10.8818567508  MEMB      76              0.0000000000
     10106        82  POPS      H6S            16.3520017430        8.2780217471      -12.0099602776  MEMB      76              0.0000000000
     10107        82  POPS      C27            18.3031638361        9.0801532285      -11.6474238247  MEMB      76              0.0000000000
     10108        82  POPS      H7R            18.1757196448        9.7921840663      -12.4906860432  MEMB      76              0.0000000000
     10109        82  POPS      H7S            19.3671941574        8.7644745161      -11.6974940918  MEMB      76              0.0000000000
     10110        82  POPS      C28            18.0534682307        9.9008270725      -10.3654949462  MEMB      76              0.0000000000
     10111        82  POPS      H8R            18.8091849809       10.7126348766      -10.4301618440  MEMB      76              0.0000000000
     10112        82  POPS      H8S            18.1872301985        9.1734423744       -9.5364352676  MEMB      76              0.0000000000
     10113        82  POPS      C29            16.6302198228       10.3909847501      -10.2518608772  MEMB      76              0.0000000000
     10114        82  POPS      H91            16.2413311566       11.2291985666      -10.8486554430  MEMB      76              0.0000000000
     10115        82  POPS      C210           15.7267960825        9.9130615829       -9.3904170791  MEMB      76              0.0000000000
     10116        82  POPS      H101           14.7662975485       10.4443182394       -9.3182441432  MEMB      76              0.0000000000
     10117        82  POPS      C211           15.8864880912        8.8414011874       -8.2874300454  MEMB      76              0.0000000000
     10118        82  POPS      H11R           16.7580158233        8.1732067668       -8.4555858620  MEMB      76              0.0000000000
     10119        82  POPS      H11S           14.9489203978        8.2453841847       -8.2946245238  MEMB      76              0.0000000000
     10120        82  POPS      C212           15.9908625198        9.4879428942       -6.9012270955  MEMB      76              0.0000000000
     10121        82  POPS      H12R           15.2868242234       10.3376448304       -6.7721618660  MEMB      76              0.0000000000
     10122        82  POPS      H12S           17.0633366470        9.7730129358       -6.8477936850  MEMB      76              0.0000000000
     10123        82  POPS      C213           15.6855695853        8.6348657809       -5.6237497156  MEMB      76              0.0000000000
     10124        82  POPS      H13R           15.9049913394        9.4812617543       -4.9383376238  MEMB      76              0.0000000000
     10125        82  POPS      H13S           16.4496311521        7.8353879442       -5.5171384934  MEMB      76              0.0000000000
     10126        82  POPS      C214           14.2242867367        8.1786648898       -5.6748337889  MEMB      76              0.0000000000
     10127        82  POPS      H14R           14.2487376845        7.3941821311       -6.4611607262  MEMB      76              0.0000000000
     10128        82  POPS      H14S           13.6821350153        9.1131645924       -5.9338760072  MEMB      76              0.0000000000
     10129        82  POPS      C215           13.7050872921        7.3799954013       -4.3942314883  MEMB      76              0.0000000000
     10130        82  POPS      H15R           14.2876287608        6.4533662995       -4.2036401921  MEMB      76              0.0000000000
     10131        82  POPS      H15S           12.6598313676        7.1065827265       -4.6530878074  MEMB      76              0.0000000000
     10132        82  POPS      C216           13.7489820889        8.3455416289       -3.1731086636  MEMB      76              0.0000000000
     10133        82  POPS      H16R           13.2885692332        9.2898614135       -3.5344966058  MEMB      76              0.0000000000
     10134        82  POPS      H16S           14.7954512976        8.5050417291       -2.8357919434  MEMB      76              0.0000000000
     10135        82  POPS      C217           12.9264826183        7.8317415890       -1.9833028632  MEMB      76              0.0000000000
     10136        82  POPS      H17R           13.1089717241        6.7528151540       -1.7911138974  MEMB      76              0.0000000000
     10137        82  POPS      H17S           11.8635320732        7.9484077513       -2.2847095401  MEMB      76              0.0000000000
     10138        82  POPS      C218           13.2477633380        8.5288092379       -0.6284135230  MEMB      76              0.0000000000
     10139        82  POPS      H18R           14.3356582592        8.6296199327       -0.4268125234  MEMB      76              0.0000000000
     10140        82  POPS      H18S           12.9362427883        7.9463016230        0.2648736140  MEMB      76              0.0000000000
     10141        82  POPS      H18T           12.6917232700        9.4874418086       -0.5499023712  MEMB      76              0.0000000000
     10142        82  POPS      C33            13.3899893411        5.1955960144      -11.0544681956  MEMB      76              0.0000000000
     10143        82  POPS      H3X            13.7179179565        4.1364433835      -10.9839043317  MEMB      76              0.0000000000
     10144        82  POPS      H3Y            12.2904958436        5.2320713833      -10.8992124575  MEMB      76              0.0000000000
     10145        82  POPS      C34            14.1263025443        5.7714757888       -9.9350036769  MEMB      76              0.0000000000
     10146        82  POPS      H4X            13.8792737914        6.8522843157       -9.8632350447  MEMB      76              0.0000000000
     10147        82  POPS      H4Y            15.2136173842        5.7715074888      -10.1631866058  MEMB      76              0.0000000000
     10148        82  POPS      C35            13.7868038231        4.9898937664       -8.6434419122  MEMB      76              0.0000000000
     10149        82  POPS      H5X            13.1929256368        4.0787374016       -8.8702100531  MEMB      76              0.0000000000
     10150        82  POPS      H5Y            13.1494863444        5.6806618974       -8.0510009289  MEMB      76              0.0000000000
     10151        82  POPS      C36            14.9111902402        4.4107068262       -7.8484988442  MEMB      76              0.0000000000
     10152        82  POPS      H6X            15.2539082508        5.3071056398       -7.2887362235  MEMB      76              0.0000000000
     10153        82  POPS      H6Y            15.8231042235        4.1600099077       -8.4314951598  MEMB      76              0.0000000000
     10154        82  POPS      C37            14.6041706497        3.2350022764       -6.8043666814  MEMB      76              0.0000000000
     10155        82  POPS      H7X            15.6017868441        3.0501055322       -6.3517115661  MEMB      76              0.0000000000
     10156        82  POPS      H7Y            14.3602724426        2.3050626351       -7.3611849945  MEMB      76              0.0000000000
     10157        82  POPS      C38            13.5874633296        3.6067660897       -5.7633298894  MEMB      76              0.0000000000
     10158        82  POPS      H8X            13.3377180021        4.6632327322       -5.9996056885  MEMB      76              0.0000000000
     10159        82  POPS      H8Y            14.1159242077        3.5344279097       -4.7887441228  MEMB      76              0.0000000000
     10160        82  POPS      C39            12.3231755844        2.6789315058       -5.6648108231  MEMB      76              0.0000000000
     10161        82  POPS      H9X            12.5604741177        1.6183693731       -5.8955025732  MEMB      76              0.0000000000
     10162        82  POPS      H9Y            11.6402668292        3.0016397008       -6.4795593689  MEMB      76              0.0000000000
     10163        82  POPS      C310           11.5902568162        2.8059635545       -4.3462523627  MEMB      76              0.0000000000
     10164        82  POPS      H10X           12.2153547930        2.2142078298       -3.6438291216  MEMB      76              0.0000000000
     10165        82  POPS      H10Y           10.6206371828        2.2907029964       -4.5155588498  MEMB      76              0.0000000000
     10166        82  POPS      C311           11.4667329588        4.2901100086       -3.8817542876  MEMB      76              0.0000000000
     10167        82  POPS      H11X           11.1327529220        4.9492415919       -4.7114075185  MEMB      76              0.0000000000
     10168        82  POPS      H11Y           12.4544515826        4.6707047963       -3.5442928129  MEMB      76              0.0000000000
     10169        82  POPS      C312           10.5160374294        4.4719015935       -2.6510867882  MEMB      76              0.0000000000
     10170        82  POPS      H12X            9.4475938756        4.2945686458       -2.8986784257  MEMB      76              0.0000000000
     10171        82  POPS      H12Y           10.4956212746        5.5640772369       -2.4484607604  MEMB      76              0.0000000000
     10172        82  POPS      C313           10.9212569573        3.6596108164       -1.3642943015  MEMB      76              0.0000000000
     10173        82  POPS      H13X           10.8077891444        2.5778617224       -1.5907105426  MEMB      76              0.0000000000
     10174        82  POPS      H13Y           10.1304699987        3.9159650004       -0.6272317359  MEMB      76              0.0000000000
     10175        82  POPS      C314           12.2021889376        4.1938837184       -0.8029491757  MEMB      76              0.0000000000
     10176        82  POPS      H14X           12.2034846088        5.3000483809       -0.6994135074  MEMB      76              0.0000000000
     10177        82  POPS      H14Y           12.8795392782        3.8518283309       -1.6144388261  MEMB      76              0.0000000000
     10178        82  POPS      C315           12.6113924354        3.6789917907        0.5553325120  MEMB      76              0.0000000000
     10179        82  POPS      H15X           13.5991955024        4.0255237995        0.9274633076  MEMB      76              0.0000000000
     10180        82  POPS      H15Y           12.6900708083        2.5755197503        0.4529579106  MEMB      76              0.0000000000
     10181        82  POPS      C316           11.7902035442        3.9590071914        1.7672408914  MEMB      76              0.0000000000
     10182        82  POPS      H16X           10.7749432434        3.5336374780        1.6168134911  MEMB      76              0.0000000000
     10183        82  POPS      H16Y           11.7351155680        5.0576940398        1.9227184110  MEMB      76              0.0000000000
     10184        82  POPS      H16Z           12.1996705961        3.5218221786        2.7029358395  MEMB      76              0.0000000000
     10185        83  POPC      N              13.1244664539       -9.4985399583      -19.6114212891  MEMB      77              0.0000000000
     10186        83  POPC      C12            13.2877774565      -11.0380316824      -19.4261700972  MEMB      77              0.0000000000
     10187        83  POPC      H12A           14.2245379804      -11.0861237607      -18.8908506893  MEMB      77              0.0000000000
     10188        83  POPC      H12B           13.1983387109      -11.5683639268      -20.3627321098  MEMB      77              0.0000000000
     10189        83  POPC      C13            14.4755733035       -8.8388152906      -19.4327055486  MEMB      77              0.0000000000
     10190        83  POPC      H13A           15.0596235259       -9.2825887925      -20.2253912602  MEMB      77              0.0000000000
     10191        83  POPC      H13B           14.5385036696       -7.7617179246      -19.4806681991  MEMB      77              0.0000000000
     10192        83  POPC      H13C           14.7376919385       -9.1441904760      -18.4304880031  MEMB      77              0.0000000000
     10193        83  POPC      C14            12.6489730830       -9.2686047971      -20.9887818652  MEMB      77              0.0000000000
     10194        83  POPC      H14A           12.4733866810       -8.2332353574      -21.2409322727  MEMB      77              0.0000000000
     10195        83  POPC      H14B           13.3138305910       -9.6695002354      -21.7395464953  MEMB      77              0.0000000000
     10196        83  POPC      H14C           11.6969111707       -9.7688041818      -21.0876685099  MEMB      77              0.0000000000
     10197        83  POPC      C15            12.0588604728       -8.8607191098      -18.7026938499  MEMB      77              0.0000000000
     10198        83  POPC      H15A           12.1845747351       -9.0812311466      -17.6529460343  MEMB      77              0.0000000000
     10199        83  POPC      H15B           11.1138072095       -9.2438294528      -19.0583632742  MEMB      77              0.0000000000
     10200        83  POPC      H15C           12.2243896992       -7.7948270457      -18.7563070507  MEMB      77              0.0000000000
     10201        83  POPC      C11            12.1459329067      -11.6757248871      -18.5055730355  MEMB      77              0.0000000000
     10202        83  POPC      H11A           12.1132341331      -11.1867609786      -17.5084942718  MEMB      77              0.0000000000
     10203        83  POPC      H11B           12.5193758789      -12.7168518179      -18.4010928442  MEMB      77              0.0000000000
     10204        83  POPC      P               9.4455177627      -11.4012890222      -18.5136610521  MEMB      77              0.0000000000
     10205        83  POPC      O13             8.4571191739      -12.1151353274      -19.3399279695  MEMB      77              0.0000000000
     10206        83  POPC      O14             9.2371928249       -9.9850023466      -18.1349176559  MEMB      77              0.0000000000
     10207        83  POPC      O12            10.8533955863      -11.6068879401      -19.2386251554  MEMB      77              0.0000000000
     10208        83  POPC      O11             9.4850219780      -12.1702483351      -17.1055225366  MEMB      77              0.0000000000
     10209        83  POPC      C1              9.1203567531      -13.5484836450      -16.9573636314  MEMB      77              0.0000000000
     10210        83  POPC      HA              9.9511064511      -14.2262239817      -17.2486436417  MEMB      77              0.0000000000
     10211        83  POPC      HB              8.1930861035      -13.8356733737      -17.4977449655  MEMB      77              0.0000000000
     10212        83  POPC      C2              8.8056433020      -13.8947845862      -15.4362322983  MEMB      77              0.0000000000
     10213        83  POPC      HS              8.2463539451      -14.8503275060      -15.5281776531  MEMB      77              0.0000000000
     10214        83  POPC      O21             8.0512153083      -12.7928458214      -14.9249988190  MEMB      77              0.0000000000
     10215        83  POPC      C21             7.5747805710      -12.9558776535      -13.6942324698  MEMB      77              0.0000000000
     10216        83  POPC      O22             7.5640231402      -13.9835828934      -12.9915433951  MEMB      77              0.0000000000
     10217        83  POPC      C22             6.8757336479      -11.7558356483      -13.2447241673  MEMB      77              0.0000000000
     10218        83  POPC      H2R             6.1109689783      -11.9286300785      -12.4575785150  MEMB      77              0.0000000000
     10219        83  POPC      H2S             6.4784234511      -11.1642029321      -14.0970367090  MEMB      77              0.0000000000
     10220        83  POPC      C3             10.1413124025      -14.1274492983      -14.5988047093  MEMB      77              0.0000000000
     10221        83  POPC      HX             10.6180463415      -14.9448132987      -15.1810090590  MEMB      77              0.0000000000
     10222        83  POPC      HY              9.9548626373      -14.4270919541      -13.5453474210  MEMB      77              0.0000000000
     10223        83  POPC      O31            10.7320539642      -12.7851402000      -14.6405702131  MEMB      77              0.0000000000
     10224        83  POPC      C31            11.9914281023      -12.7923472966      -14.2533412650  MEMB      77              0.0000000000
     10225        83  POPC      O32            12.5252714965      -13.8116886617      -13.8124191724  MEMB      77              0.0000000000
     10226        83  POPC      C32            12.6513232074      -11.4385735922      -14.4849131513  MEMB      77              0.0000000000
     10227        83  POPC      H2X            12.2213073369      -11.1019944206      -15.4524471970  MEMB      77              0.0000000000
     10228        83  POPC      H2Y            13.7564502864      -11.5421558156      -14.5327205226  MEMB      77              0.0000000000
     10229        83  POPC      C23             7.9399962721      -10.7421917190      -12.7058703249  MEMB      77              0.0000000000
     10230        83  POPC      H3R             8.9619973325      -10.7476272827      -13.1415369136  MEMB      77              0.0000000000
     10231        83  POPC      H3S             8.0707721334      -10.9408927931      -11.6206348095  MEMB      77              0.0000000000
     10232        83  POPC      C24             7.2644539356       -9.3038223127      -12.6311128704  MEMB      77              0.0000000000
     10233        83  POPC      H4R             6.1661378330       -9.4633482321      -12.6818529007  MEMB      77              0.0000000000
     10234        83  POPC      H4S             7.3626623956       -8.8150991914      -13.6240004886  MEMB      77              0.0000000000
     10235        83  POPC      C25             7.6996320097       -8.4083540207      -11.4717737792  MEMB      77              0.0000000000
     10236        83  POPC      H5R             8.8095972438       -8.3936723173      -11.4261378770  MEMB      77              0.0000000000
     10237        83  POPC      H5S             7.2935002176       -8.7871183523      -10.5095291020  MEMB      77              0.0000000000
     10238        83  POPC      C26             7.2551567524       -6.9378953354      -11.5670638294  MEMB      77              0.0000000000
     10239        83  POPC      H6R             6.1617785184       -6.8715262856      -11.7526440379  MEMB      77              0.0000000000
     10240        83  POPC      H6S             7.6640207041       -6.5351069766      -12.5183329674  MEMB      77              0.0000000000
     10241        83  POPC      C27             7.7586256600       -6.0349743766      -10.3863389595  MEMB      77              0.0000000000
     10242        83  POPC      H7R             7.4102060846       -6.5818125664       -9.4841790920  MEMB      77              0.0000000000
     10243        83  POPC      H7S             7.2024261062       -5.0737722163      -10.4187966669  MEMB      77              0.0000000000
     10244        83  POPC      C28             9.2870131171       -5.8424720673      -10.2731677389  MEMB      77              0.0000000000
     10245        83  POPC      H8R             9.6140902658       -5.4289197007      -11.2510819504  MEMB      77              0.0000000000
     10246        83  POPC      H8S             9.9354133951       -6.7290939224      -10.1064356161  MEMB      77              0.0000000000
     10247        83  POPC      C29             9.6707520267       -4.7762229339       -9.2098527031  MEMB      77              0.0000000000
     10248        83  POPC      H91             9.2611339377       -3.7747811046       -9.4081632738  MEMB      77              0.0000000000
     10249        83  POPC      C210           10.4544282911       -4.9860076265       -8.1451861974  MEMB      77              0.0000000000
     10250        83  POPC      H101           10.7408302657       -4.1418641093       -7.5006740310  MEMB      77              0.0000000000
     10251        83  POPC      C211           11.0178728619       -6.3231569273       -7.7753532113  MEMB      77              0.0000000000
     10252        83  POPC      H11R           11.7426035937       -6.7111574807       -8.5227099679  MEMB      77              0.0000000000
     10253        83  POPC      H11S           10.2053948955       -7.0772806486       -7.7012056488  MEMB      77              0.0000000000
     10254        83  POPC      C212           11.5109373991       -6.4089566039       -6.2612024734  MEMB      77              0.0000000000
     10255        83  POPC      H12R           10.7677867309       -5.9280080803       -5.5898337158  MEMB      77              0.0000000000
     10256        83  POPC      H12S           12.3979180052       -5.7503222870       -6.1437832602  MEMB      77              0.0000000000
     10257        83  POPC      C213           11.6317128882       -7.7990538204       -5.5586555721  MEMB      77              0.0000000000
     10258        83  POPC      H13R           10.8310343936       -8.5304142232       -5.8002068051  MEMB      77              0.0000000000
     10259        83  POPC      H13S           11.4502181772       -7.6609099520       -4.4713206909  MEMB      77              0.0000000000
     10260        83  POPC      C214           12.9745459046       -8.3892993680       -5.8341971661  MEMB      77              0.0000000000
     10261        83  POPC      H14R           13.6839022846       -7.7628289623       -5.2522443424  MEMB      77              0.0000000000
     10262        83  POPC      H14S           13.2100129247       -8.3195362259       -6.9177145409  MEMB      77              0.0000000000
     10263        83  POPC      C215           13.2592779429       -9.8798075989       -5.3231048264  MEMB      77              0.0000000000
     10264        83  POPC      H15R           14.2190193717      -10.3132404954       -5.6771576560  MEMB      77              0.0000000000
     10265        83  POPC      H15S           12.5232756264      -10.5851441564       -5.7648308432  MEMB      77              0.0000000000
     10266        83  POPC      C216           13.3075817968      -10.0639644175       -3.8245349060  MEMB      77              0.0000000000
     10267        83  POPC      H16R           12.4220085816       -9.5895679309       -3.3501624250  MEMB      77              0.0000000000
     10268        83  POPC      H16S           14.1475554949       -9.5016862735       -3.3634403624  MEMB      77              0.0000000000
     10269        83  POPC      C217           13.1808142548      -11.4747368286       -3.3909782733  MEMB      77              0.0000000000
     10270        83  POPC      H17R           13.8653405680      -12.1052260518       -3.9977959259  MEMB      77              0.0000000000
     10271        83  POPC      H17S           12.1779563097      -11.7419962991       -3.7874241525  MEMB      77              0.0000000000
     10272        83  POPC      C218           13.3538400836      -11.7708958014       -1.9044098156  MEMB      77              0.0000000000
     10273        83  POPC      H18R           12.9339416663      -12.7671035222       -1.6483312662  MEMB      77              0.0000000000
     10274        83  POPC      H18S           12.8110719781      -10.9557127732       -1.3798167383  MEMB      77              0.0000000000
     10275        83  POPC      H18T           14.4238099570      -11.8812261143       -1.6263576580  MEMB      77              0.0000000000
     10276        83  POPC      C33            12.3484119071      -10.3358764390      -13.4249411672  MEMB      77              0.0000000000
     10277        83  POPC      H3X            11.3888438375      -10.5979193181      -12.9300841216  MEMB      77              0.0000000000
     10278        83  POPC      H3Y            12.2358817145       -9.3347034314      -13.8932473883  MEMB      77              0.0000000000
     10279        83  POPC      C34            13.3402614948      -10.3553783666      -12.2831370141  MEMB      77              0.0000000000
     10280        83  POPC      H4X            13.1992745263       -9.5773012249      -11.5027271202  MEMB      77              0.0000000000
     10281        83  POPC      H4Y            14.3774948994      -10.1769666196      -12.6389981510  MEMB      77              0.0000000000
     10282        83  POPC      C35            13.4267897556      -11.6973779346      -11.4634031103  MEMB      77              0.0000000000
     10283        83  POPC      H5X            14.2353317132      -11.5634266823      -10.7133109372  MEMB      77              0.0000000000
     10284        83  POPC      H5Y            13.6165391625      -12.5016731970      -12.2059830771  MEMB      77              0.0000000000
     10285        83  POPC      C36            12.1634885301      -11.9303344382      -10.5784394866  MEMB      77              0.0000000000
     10286        83  POPC      H6X            11.3114401743      -12.1860003007      -11.2439991755  MEMB      77              0.0000000000
     10287        83  POPC      H6Y            11.9253965925      -10.8735155727      -10.3319302765  MEMB      77              0.0000000000
     10288        83  POPC      C37            12.4969920775      -12.7777238379       -9.3833427422  MEMB      77              0.0000000000
     10289        83  POPC      H7X            13.4763974844      -12.4573936875       -8.9680415217  MEMB      77              0.0000000000
     10290        83  POPC      H7Y            12.6811485167      -13.8262327814       -9.7012032707  MEMB      77              0.0000000000
     10291        83  POPC      C38            11.5824020540      -12.6744816112       -8.1560005976  MEMB      77              0.0000000000
     10292        83  POPC      H8X            11.6604264483      -11.6475212099       -7.7393642794  MEMB      77              0.0000000000
     10293        83  POPC      H8Y            11.7957841917      -13.3924424784       -7.3354385025  MEMB      77              0.0000000000
     10294        83  POPC      C39            10.0685864007      -12.8277399384       -8.5283810108  MEMB      77              0.0000000000
     10295        83  POPC      H9X             9.9556624458      -13.6586440684       -9.2571937219  MEMB      77              0.0000000000
     10296        83  POPC      H9Y             9.7697756488      -11.9220531392       -9.0982623277  MEMB      77              0.0000000000
     10297        83  POPC      C310            9.0391254224      -13.0370878659       -7.4146068444  MEMB      77              0.0000000000
     10298        83  POPC      H10X            9.2540823475      -14.0021748155       -6.9079303077  MEMB      77              0.0000000000
     10299        83  POPC      H10Y            8.0447506930      -13.1792988305       -7.8892814379  MEMB      77              0.0000000000
     10300        83  POPC      C311            9.1744594315      -12.0325098929       -6.3593631084  MEMB      77              0.0000000000
     10301        83  POPC      H11X            9.3492382595      -11.0180517487       -6.7772722870  MEMB      77              0.0000000000
     10302        83  POPC      H11Y           10.0064199118      -12.3646975783       -5.7022372692  MEMB      77              0.0000000000
     10303        83  POPC      C312            7.9545224205      -12.0863136755       -5.4200044867  MEMB      77              0.0000000000
     10304        83  POPC      H12X            7.9085876847      -13.1429158850       -5.0797064599  MEMB      77              0.0000000000
     10305        83  POPC      H12Y            7.0446486909      -12.0053552715       -6.0523783966  MEMB      77              0.0000000000
     10306        83  POPC      C313            8.0354928477      -11.0420275362       -4.3120685330  MEMB      77              0.0000000000
     10307        83  POPC      H13X            7.0349812050      -10.7715992631       -3.9118617827  MEMB      77              0.0000000000
     10308        83  POPC      H13Y            8.4408159649      -10.0761006116       -4.6822300264  MEMB      77              0.0000000000
     10309        83  POPC      C314            8.8517028209      -11.3004222505       -3.0471123199  MEMB      77              0.0000000000
     10310        83  POPC      H14X            8.6764874261      -10.4223747757       -2.3893487224  MEMB      77              0.0000000000
     10311        83  POPC      H14Y            9.9578775602      -11.2935298420       -3.1503163245  MEMB      77              0.0000000000
     10312        83  POPC      C315            8.4335521990      -12.5181808772       -2.2125804650  MEMB      77              0.0000000000
     10313        83  POPC      H15X            8.7371524318      -13.5111727205       -2.6076936864  MEMB      77              0.0000000000
     10314        83  POPC      H15Y            7.3233924994      -12.5176917833       -2.2557799025  MEMB      77              0.0000000000
     10315        83  POPC      C316            8.9100669109      -12.4700900038       -0.7395027057  MEMB      77              0.0000000000
     10316        83  POPC      H16X            8.5553703604      -13.3502055543       -0.1616546050  MEMB      77              0.0000000000
     10317        83  POPC      H16Y            8.7562895179      -11.5176418743       -0.1885782052  MEMB      77              0.0000000000
     10318        83  POPC      H16Z           10.0137476729      -12.5918744060       -0.7023775778  MEMB      77              0.0000000000
     10319        84  POPS      N              -0.8640641417       14.8187365219      -18.9741176059  MEMB      78              0.0000000000
     10320        84  POPS      HN1            -1.8785149931       14.6260551479      -18.8501688084  MEMB      78              0.0000000000
     10321        84  POPS      HN2            -0.5851078866       14.1925183269      -19.7561881147  MEMB      78              0.0000000000
     10322        84  POPS      HN3            -0.2261252956       14.5919756869      -18.1846787858  MEMB      78              0.0000000000
     10323        84  POPS      C12            -0.6177808641       16.2425071818      -19.2292343323  MEMB      78              0.0000000000
     10324        84  POPS      H12A           -0.7658612187       16.6645884149      -18.2462187615  MEMB      78              0.0000000000
     10325        84  POPS      C13            -1.6433610757       16.9184629477      -20.1173782641  MEMB      78              0.0000000000
     10326        84  POPS      O13A           -2.4342350474       16.1782181957      -20.7348286803  MEMB      78              0.0000000000
     10327        84  POPS      O13B           -1.6644944062       18.1642778055      -20.1737800178  MEMB      78              0.0000000000
     10328        84  POPS      C11             0.8688146015       16.5051848508      -19.7651261542  MEMB      78              0.0000000000
     10329        84  POPS      H11A            0.9938439175       17.6025704410      -19.6449863505  MEMB      78              0.0000000000
     10330        84  POPS      H11B            1.1567427124       16.2028775750      -20.7947030950  MEMB      78              0.0000000000
     10331        84  POPS      P               2.7805057900       16.6694516902      -18.0431525844  MEMB      78              0.0000000000
     10332        84  POPS      O13             2.0463332762       17.7419107762      -17.3003819056  MEMB      78              0.0000000000
     10333        84  POPS      O14             4.0392768263       16.9667175144      -18.7740529003  MEMB      78              0.0000000000
     10334        84  POPS      O12             1.7963089114       15.8167635541      -18.9655484045  MEMB      78              0.0000000000
     10335        84  POPS      O11             3.0948762343       15.6450844586      -16.9223991895  MEMB      78              0.0000000000
     10336        84  POPS      C1              3.4887861020       14.3047242182      -17.3431739883  MEMB      78              0.0000000000
     10337        84  POPS      HA              4.3802222338       14.4824251044      -17.9819895429  MEMB      78              0.0000000000
     10338        84  POPS      HB              2.6785849995       13.7170615554      -17.8254061004  MEMB      78              0.0000000000
     10339        84  POPS      C2              3.8479587338       13.5223528680      -16.0775660378  MEMB      78              0.0000000000
     10340        84  POPS      HS              3.9317796841       12.4336847065      -16.2827393485  MEMB      78              0.0000000000
     10341        84  POPS      O21             2.9144094513       13.7283450247      -15.0341314775  MEMB      78              0.0000000000
     10342        84  POPS      C21             1.6090996676       13.7237653753      -15.1599720478  MEMB      78              0.0000000000
     10343        84  POPS      O22             0.9705036543       13.5185247917      -16.2301959455  MEMB      78              0.0000000000
     10344        84  POPS      C22             0.9376781112       13.8808652390      -13.8296479823  MEMB      78              0.0000000000
     10345        84  POPS      H2R             1.4916719315       13.3989897193      -12.9958566736  MEMB      78              0.0000000000
     10346        84  POPS      H2S            -0.1127982744       13.5233827132      -13.8846641984  MEMB      78              0.0000000000
     10347        84  POPS      C3              5.2158850653       13.9456726415      -15.4877462312  MEMB      78              0.0000000000
     10348        84  POPS      HX              5.9782685542       13.5403772842      -16.1869091000  MEMB      78              0.0000000000
     10349        84  POPS      HY              5.5251329959       13.5372540130      -14.5019058949  MEMB      78              0.0000000000
     10350        84  POPS      O31             5.3986787055       15.3726379742      -15.5231611839  MEMB      78              0.0000000000
     10351        84  POPS      C31             5.4337637854       15.9210979326      -14.3151719772  MEMB      78              0.0000000000
     10352        84  POPS      O32             5.4042916036       15.3934104839      -13.1981489302  MEMB      78              0.0000000000
     10353        84  POPS      C32             5.6670250001       17.4354624219      -14.5539687522  MEMB      78              0.0000000000
     10354        84  POPS      H2X             4.8067490107       17.9556596996      -15.0268758677  MEMB      78              0.0000000000
     10355        84  POPS      H2Y             6.3493406455       17.4312447610      -15.4307521793  MEMB      78              0.0000000000
     10356        84  POPS      C23             0.8560722766       15.3948356547      -13.5403379466  MEMB      78              0.0000000000
     10357        84  POPS      H3R            -0.0599780707       15.8582686831      -13.9650762565  MEMB      78              0.0000000000
     10358        84  POPS      H3S             1.6774444023       15.9969418856      -13.9843391808  MEMB      78              0.0000000000
     10359        84  POPS      C24             0.8029584094       15.7919410429      -12.0512373493  MEMB      78              0.0000000000
     10360        84  POPS      H4R             1.6839485536       15.5671171184      -11.4127770459  MEMB      78              0.0000000000
     10361        84  POPS      H4S            -0.0289021516       15.1921600479      -11.6239299069  MEMB      78              0.0000000000
     10362        84  POPS      C25             0.6401376459       17.2996232415      -11.7860632333  MEMB      78              0.0000000000
     10363        84  POPS      H5R            -0.2821872033       17.6546739023      -12.2935837457  MEMB      78              0.0000000000
     10364        84  POPS      H5S             1.4950203921       17.7995213981      -12.2896488020  MEMB      78              0.0000000000
     10365        84  POPS      C26             0.7582701227       17.7732738292      -10.3697701790  MEMB      78              0.0000000000
     10366        84  POPS      H6R             0.9757469286       18.8523330830      -10.2192518390  MEMB      78              0.0000000000
     10367        84  POPS      H6S             1.6611432304       17.3165797344       -9.9108896305  MEMB      78              0.0000000000
     10368        84  POPS      C27            -0.4054325520       17.3964234327       -9.4462087329  MEMB      78              0.0000000000
     10369        84  POPS      H7R            -0.6804091059       16.3344177686       -9.6218593774  MEMB      78              0.0000000000
     10370        84  POPS      H7S            -1.2538607628       17.9208572261       -9.9355555104  MEMB      78              0.0000000000
     10371        84  POPS      C28            -0.2193255553       17.6545321839       -7.9398358297  MEMB      78              0.0000000000
     10372        84  POPS      H8R            -0.1288214387       18.7590197926       -7.8608597753  MEMB      78              0.0000000000
     10373        84  POPS      H8S             0.7680734344       17.2090655093       -7.6930088895  MEMB      78              0.0000000000
     10374        84  POPS      C29            -1.1902087676       17.0753385479       -6.9805427969  MEMB      78              0.0000000000
     10375        84  POPS      H91            -1.8139521127       17.9004679648       -6.6062356187  MEMB      78              0.0000000000
     10376        84  POPS      C210           -1.2247905589       15.7543018409       -6.6895128593  MEMB      78              0.0000000000
     10377        84  POPS      H101           -1.9091148686       15.3902730291       -5.9090113000  MEMB      78              0.0000000000
     10378        84  POPS      C211           -0.2621061470       14.6664240825       -7.2057432612  MEMB      78              0.0000000000
     10379        84  POPS      H11R            0.0279259559       14.7893834316       -8.2711460817  MEMB      78              0.0000000000
     10380        84  POPS      H11S           -0.7748500455       13.6876058923       -7.0902884155  MEMB      78              0.0000000000
     10381        84  POPS      C212            1.0352921673       14.4155069945       -6.3543690664  MEMB      78              0.0000000000
     10382        84  POPS      H12R            1.6468919773       15.3124391413       -6.5905458137  MEMB      78              0.0000000000
     10383        84  POPS      H12S            1.5917273387       13.5379916488       -6.7476472047  MEMB      78              0.0000000000
     10384        84  POPS      C213            0.8161820363       14.0846761290       -4.8674840742  MEMB      78              0.0000000000
     10385        84  POPS      H13R            0.5455279536       13.0081733167       -4.9144840495  MEMB      78              0.0000000000
     10386        84  POPS      H13S           -0.0388287677       14.6814927424       -4.4839639386  MEMB      78              0.0000000000
     10387        84  POPS      C214            2.0001042499       14.4204187345       -4.0386704533  MEMB      78              0.0000000000
     10388        84  POPS      H14R            2.2519860997       15.4826606323       -4.2448710847  MEMB      78              0.0000000000
     10389        84  POPS      H14S            2.8653898647       13.7691678856       -4.2866115722  MEMB      78              0.0000000000
     10390        84  POPS      C215            1.7316172561       14.4028072292       -2.5600445581  MEMB      78              0.0000000000
     10391        84  POPS      H15R            0.9270560894       15.1505342293       -2.3929911453  MEMB      78              0.0000000000
     10392        84  POPS      H15S            2.5422866281       14.8386549193       -1.9378123900  MEMB      78              0.0000000000
     10393        84  POPS      C216            1.4561828576       12.9941178381       -2.1150122166  MEMB      78              0.0000000000
     10394        84  POPS      H16R            2.2488635817       12.3281699853       -2.5181151850  MEMB      78              0.0000000000
     10395        84  POPS      H16S            0.4535177495       12.6782228394       -2.4744464620  MEMB      78              0.0000000000
     10396        84  POPS      C217            1.3339467692       12.8768342115       -0.5827114423  MEMB      78              0.0000000000
     10397        84  POPS      H17R            0.9767332087       11.8588173943       -0.3174554678  MEMB      78              0.0000000000
     10398        84  POPS      H17S            0.5999800254       13.5971990314       -0.1623685138  MEMB      78              0.0000000000
     10399        84  POPS      C218            2.6668781567       13.0093050165        0.2342120586  MEMB      78              0.0000000000
     10400        84  POPS      H18R            3.1532684919       14.0032478722        0.1351029297  MEMB      78              0.0000000000
     10401        84  POPS      H18S            3.4341084360       12.2614520723       -0.0597161679  MEMB      78              0.0000000000
     10402        84  POPS      H18T            2.2852658686       12.8254785252        1.2612957658  MEMB      78              0.0000000000
     10403        84  POPS      C33             6.1763595752       18.1140874680      -13.3029446484  MEMB      78              0.0000000000
     10404        84  POPS      H3X             6.9854750663       18.8147250557      -13.6008719745  MEMB      78              0.0000000000
     10405        84  POPS      H3Y             6.5153093035       17.3914489847      -12.5301396616  MEMB      78              0.0000000000
     10406        84  POPS      C34             5.0976539734       19.0092801732      -12.6021377537  MEMB      78              0.0000000000
     10407        84  POPS      H4X             4.4282457967       19.5531322381      -13.3024512264  MEMB      78              0.0000000000
     10408        84  POPS      H4Y             5.6562268014       19.8005763543      -12.0579250382  MEMB      78              0.0000000000
     10409        84  POPS      C35             4.3020206766       18.3225006283      -11.4803753101  MEMB      78              0.0000000000
     10410        84  POPS      H5X             3.5313151963       17.5761582353      -11.7690044846  MEMB      78              0.0000000000
     10411        84  POPS      H5Y             3.7619792749       19.1705492362      -11.0076276474  MEMB      78              0.0000000000
     10412        84  POPS      C36             5.1398672991       17.5472799361      -10.3778403318  MEMB      78              0.0000000000
     10413        84  POPS      H6X             6.0048120573       18.2192220888      -10.1915990736  MEMB      78              0.0000000000
     10414        84  POPS      H6Y             5.5298545932       16.6564868785      -10.9151655575  MEMB      78              0.0000000000
     10415        84  POPS      C37             4.5836014237       17.3166558850       -8.9257396223  MEMB      78              0.0000000000
     10416        84  POPS      H7X             5.3798321864       16.8223070355       -8.3291176951  MEMB      78              0.0000000000
     10417        84  POPS      H7Y             3.6501085152       16.7444763462       -9.1142140022  MEMB      78              0.0000000000
     10418        84  POPS      C38             4.2173216430       18.6585939965       -8.2302681965  MEMB      78              0.0000000000
     10419        84  POPS      H8X             3.5584913206       19.2260502548       -8.9218300362  MEMB      78              0.0000000000
     10420        84  POPS      H8Y             5.0728111185       19.3659294259       -8.1840605656  MEMB      78              0.0000000000
     10421        84  POPS      C39             3.6545568255       18.4810146785       -6.8543933743  MEMB      78              0.0000000000
     10422        84  POPS      H9X             4.4523135319       18.1720679998       -6.1455510804  MEMB      78              0.0000000000
     10423        84  POPS      H9Y             2.8936515237       17.6749003950       -6.9287175015  MEMB      78              0.0000000000
     10424        84  POPS      C310            2.8405720412       19.7298296486       -6.3745016378  MEMB      78              0.0000000000
     10425        84  POPS      H10X            1.8890817360       19.7299310257       -6.9480761476  MEMB      78              0.0000000000
     10426        84  POPS      H10Y            3.4661623274       20.6188598398       -6.6038116095  MEMB      78              0.0000000000
     10427        84  POPS      C311            2.4784520169       19.7468766890       -4.8859506627  MEMB      78              0.0000000000
     10428        84  POPS      H11X            1.8014816008       20.5983694317       -4.6601368072  MEMB      78              0.0000000000
     10429        84  POPS      H11Y            3.4104058558       19.9987791412       -4.3361071623  MEMB      78              0.0000000000
     10430        84  POPS      C312            2.0836064309       18.3802887823       -4.3214239880  MEMB      78              0.0000000000
     10431        84  POPS      H12X            2.8519232621       17.6632223529       -4.6817377849  MEMB      78              0.0000000000
     10432        84  POPS      H12Y            1.1575076339       18.0586306492       -4.8441076556  MEMB      78              0.0000000000
     10433        84  POPS      C313            1.9164943049       18.3640713970       -2.7567783549  MEMB      78              0.0000000000
     10434        84  POPS      H13X            2.7871333870       18.8710431268       -2.2884964660  MEMB      78              0.0000000000
     10435        84  POPS      H13Y            1.9758647496       17.3022400970       -2.4353585728  MEMB      78              0.0000000000
     10436        84  POPS      C314            0.5461695094       18.9496966051       -2.2679522510  MEMB      78              0.0000000000
     10437        84  POPS      H14X           -0.0346525084       19.2883811981       -3.1524060000  MEMB      78              0.0000000000
     10438        84  POPS      H14Y            0.8600403610       19.9320742475       -1.8547436484  MEMB      78              0.0000000000
     10439        84  POPS      C315           -0.2207390698       17.9394327061       -1.4847793827  MEMB      78              0.0000000000
     10440        84  POPS      H15X           -0.3524606364       17.0130034482       -2.0836936292  MEMB      78              0.0000000000
     10441        84  POPS      H15Y           -1.2913984775       18.2339816066       -1.4494204798  MEMB      78              0.0000000000
     10442        84  POPS      C316            0.4876451957       17.6694335327       -0.1461567945  MEMB      78              0.0000000000
     10443        84  POPS      H16X            0.7441361576       18.5769266683        0.4412007586  MEMB      78              0.0000000000
     10444        84  POPS      H16Y            1.4373365370       17.1031995469       -0.2547232175  MEMB      78              0.0000000000
     10445        84  POPS      H16Z           -0.1787206079       17.1354473008        0.5645722969  MEMB      78              0.0000000000
     10446        85  POPS      N             -10.1850869435      -11.0241305268      -19.0899933699  MEMB      79              0.0000000000
     10447        85  POPS      HN1            -9.9095669794      -10.0383609492      -19.2742401067  MEMB      79              0.0000000000
     10448        85  POPS      HN2            -9.5236047074      -11.4101995962      -18.3864367826  MEMB      79              0.0000000000
     10449        85  POPS      HN3            -9.8762063334      -11.4680536066      -19.9783204275  MEMB      79              0.0000000000
     10450        85  POPS      C12           -11.5666768487      -11.0729545549      -18.8198430178  MEMB      79              0.0000000000
     10451        85  POPS      H12A          -11.6558123170      -10.3814530315      -17.9950518240  MEMB      79              0.0000000000
     10452        85  POPS      C13           -12.0330419841      -12.5193109485      -18.4069053582  MEMB      79              0.0000000000
     10453        85  POPS      O13A          -11.1138723784      -13.4220481261      -18.3263397439  MEMB      79              0.0000000000
     10454        85  POPS      O13B          -13.2556701604      -12.8294579112      -18.2329136309  MEMB      79              0.0000000000
     10455        85  POPS      C11           -12.2241741955      -10.5059725616      -20.0491981236  MEMB      79              0.0000000000
     10456        85  POPS      H11A          -12.1913182265      -11.2861570853      -20.8394850863  MEMB      79              0.0000000000
     10457        85  POPS      H11B          -11.7062455020       -9.6184357991      -20.4715124604  MEMB      79              0.0000000000
     10458        85  POPS      P             -14.0295006622       -8.7643632922      -19.2437867287  MEMB      79              0.0000000000
     10459        85  POPS      O13           -15.4644679218       -8.5220395293      -19.4403161361  MEMB      79              0.0000000000
     10460        85  POPS      O14           -13.1282150467       -7.7812553631      -19.8399134838  MEMB      79              0.0000000000
     10461        85  POPS      O12           -13.5906607356      -10.1934003552      -19.8302998943  MEMB      79              0.0000000000
     10462        85  POPS      O11           -13.7169012188       -9.1166170336      -17.7204905318  MEMB      79              0.0000000000
     10463        85  POPS      C1            -14.5641212720      -10.0112155928      -16.9587021603  MEMB      79              0.0000000000
     10464        85  POPS      HA            -14.6363887306      -10.9628576026      -17.5274515891  MEMB      79              0.0000000000
     10465        85  POPS      HB            -15.5467492342       -9.4938603594      -16.9254339310  MEMB      79              0.0000000000
     10466        85  POPS      C2            -14.0444477170      -10.2731219541      -15.5163429949  MEMB      79              0.0000000000
     10467        85  POPS      HS            -14.3077831084       -9.3727997791      -14.9210319375  MEMB      79              0.0000000000
     10468        85  POPS      O21           -12.6319865702      -10.4595353832      -15.4404650431  MEMB      79              0.0000000000
     10469        85  POPS      C21           -11.8744086143       -9.3941013417      -15.5004842691  MEMB      79              0.0000000000
     10470        85  POPS      O22           -12.1475175581       -8.2476037015      -15.7439861487  MEMB      79              0.0000000000
     10471        85  POPS      C22           -10.4699634045       -9.9200362279      -15.1641482361  MEMB      79              0.0000000000
     10472        85  POPS      H2R           -10.0787615870      -10.4798121171      -16.0404660803  MEMB      79              0.0000000000
     10473        85  POPS      H2S           -10.5030400428      -10.7106996884      -14.3843543195  MEMB      79              0.0000000000
     10474        85  POPS      C3            -14.7158747258      -11.5927639778      -14.8776561130  MEMB      79              0.0000000000
     10475        85  POPS      HX            -14.4675088161      -12.5151825297      -15.4449122898  MEMB      79              0.0000000000
     10476        85  POPS      HY            -15.8138116437      -11.4336104994      -14.9370335854  MEMB      79              0.0000000000
     10477        85  POPS      O31           -14.3792367061      -11.8973081896      -13.5002154319  MEMB      79              0.0000000000
     10478        85  POPS      C31           -15.0153643938      -11.3971635879      -12.4785449579  MEMB      79              0.0000000000
     10479        85  POPS      O32           -15.7909577800      -10.4376900807      -12.4408244437  MEMB      79              0.0000000000
     10480        85  POPS      C32           -14.7292825399      -12.3013751593      -11.2511512068  MEMB      79              0.0000000000
     10481        85  POPS      H2X           -15.7445379540      -12.3197181234      -10.8003284285  MEMB      79              0.0000000000
     10482        85  POPS      H2Y           -14.1202994112      -11.7711369441      -10.4880600247  MEMB      79              0.0000000000
     10483        85  POPS      C23            -9.4370422985       -8.8180320912      -14.7351010497  MEMB      79              0.0000000000
     10484        85  POPS      H3R            -9.5486157001       -7.9321819742      -15.3962678699  MEMB      79              0.0000000000
     10485        85  POPS      H3S            -8.4348590068       -9.2743340822      -14.8825398078  MEMB      79              0.0000000000
     10486        85  POPS      C24            -9.5635578753       -8.2549258165      -13.3088325126  MEMB      79              0.0000000000
     10487        85  POPS      H4R           -10.5678837730       -7.7998064952      -13.4449103662  MEMB      79              0.0000000000
     10488        85  POPS      H4S            -8.7878286828       -7.4612648474      -13.2571931781  MEMB      79              0.0000000000
     10489        85  POPS      C25            -9.2769063605       -9.1917428230      -12.1446966638  MEMB      79              0.0000000000
     10490        85  POPS      H5R            -8.1908853756       -9.4155645091      -12.2138584843  MEMB      79              0.0000000000
     10491        85  POPS      H5S            -9.8331968499      -10.1526960443      -12.1825244701  MEMB      79              0.0000000000
     10492        85  POPS      C26            -9.7413033610       -8.4190989698      -10.7647651021  MEMB      79              0.0000000000
     10493        85  POPS      H6R            -9.2614217631       -7.4173727985      -10.7406890434  MEMB      79              0.0000000000
     10494        85  POPS      H6S            -9.4427813126       -8.9903593799       -9.8598526284  MEMB      79              0.0000000000
     10495        85  POPS      C27           -11.2488507140       -8.2356596618      -10.5806044783  MEMB      79              0.0000000000
     10496        85  POPS      H7R           -11.4520521763       -7.7849152573      -11.5755213681  MEMB      79              0.0000000000
     10497        85  POPS      H7S           -11.4248808308       -7.4018512912       -9.8677946098  MEMB      79              0.0000000000
     10498        85  POPS      C28           -12.0984411210       -9.4913231954      -10.2600702366  MEMB      79              0.0000000000
     10499        85  POPS      H8R           -11.8123868568      -10.0831906319      -11.1557189603  MEMB      79              0.0000000000
     10500        85  POPS      H8S           -13.1764814488       -9.3110250762      -10.4591742400  MEMB      79              0.0000000000
     10501        85  POPS      C29           -11.8246770549      -10.1120904348       -8.9067271964  MEMB      79              0.0000000000
     10502        85  POPS      H91           -10.8482034356      -10.5798358626       -8.7125276722  MEMB      79              0.0000000000
     10503        85  POPS      C210          -12.6852367465      -10.1398549346       -7.8974872265  MEMB      79              0.0000000000
     10504        85  POPS      H101          -12.3762610578      -10.5075633120       -6.9078791780  MEMB      79              0.0000000000
     10505        85  POPS      C211          -14.1153789982       -9.5365788502       -7.9498582866  MEMB      79              0.0000000000
     10506        85  POPS      H11R          -14.4215434226       -8.9226857651       -8.8237686825  MEMB      79              0.0000000000
     10507        85  POPS      H11S          -14.3253276841       -8.7537387377       -7.1899872966  MEMB      79              0.0000000000
     10508        85  POPS      C212          -15.2505349203      -10.6177544871       -7.8068711338  MEMB      79              0.0000000000
     10509        85  POPS      H12R          -15.0533460168      -11.4575814986       -8.5069631148  MEMB      79              0.0000000000
     10510        85  POPS      H12S          -16.2153918590      -10.1979713060       -8.1634583416  MEMB      79              0.0000000000
     10511        85  POPS      C213          -15.4928229739      -11.1125963764       -6.4283520662  MEMB      79              0.0000000000
     10512        85  POPS      H13R          -14.5554523098      -11.2354425410       -5.8447723484  MEMB      79              0.0000000000
     10513        85  POPS      H13S          -16.0813006794      -12.0537728961       -6.3814279814  MEMB      79              0.0000000000
     10514        85  POPS      C214          -16.3240016590      -10.1172561537       -5.6030291133  MEMB      79              0.0000000000
     10515        85  POPS      H14R          -16.9021518315       -9.4013700604       -6.2255806437  MEMB      79              0.0000000000
     10516        85  POPS      H14S          -15.6614546821       -9.4495135704       -5.0118681615  MEMB      79              0.0000000000
     10517        85  POPS      C215          -17.2663300467      -10.7207875847       -4.5600910101  MEMB      79              0.0000000000
     10518        85  POPS      H15R          -18.1573565196      -11.0319857751       -5.1462204520  MEMB      79              0.0000000000
     10519        85  POPS      H15S          -17.6052662981       -9.9179094481       -3.8710119812  MEMB      79              0.0000000000
     10520        85  POPS      C216          -16.7001240753      -11.6961060989       -3.5208218048  MEMB      79              0.0000000000
     10521        85  POPS      H16R          -16.2384977107      -12.5596656223       -4.0456908213  MEMB      79              0.0000000000
     10522        85  POPS      H16S          -17.5236495900      -12.0040993762       -2.8416549090  MEMB      79              0.0000000000
     10523        85  POPS      C217          -15.6739463399      -11.0214094435       -2.5545267155  MEMB      79              0.0000000000
     10524        85  POPS      H17R          -16.2338754252      -10.1548987743       -2.1422661389  MEMB      79              0.0000000000
     10525        85  POPS      H17S          -14.8045301003      -10.6533836776       -3.1401830371  MEMB      79              0.0000000000
     10526        85  POPS      C218          -15.0955392063      -11.9505240411       -1.5366906648  MEMB      79              0.0000000000
     10527        85  POPS      H18R          -15.0976861585      -13.0355277153       -1.7756111945  MEMB      79              0.0000000000
     10528        85  POPS      H18S          -15.5384463743      -11.7132504841       -0.5458038240  MEMB      79              0.0000000000
     10529        85  POPS      H18T          -14.0258971912      -11.7049218063       -1.3638697851  MEMB      79              0.0000000000
     10530        85  POPS      C33           -14.2478892295      -13.7999984217      -11.4819919896  MEMB      79              0.0000000000
     10531        85  POPS      H3X           -13.1675508966      -13.9642063097      -11.6825555907  MEMB      79              0.0000000000
     10532        85  POPS      H3Y           -14.9259912181      -14.2306462079      -12.2494819934  MEMB      79              0.0000000000
     10533        85  POPS      C34           -14.3996299674      -14.5416642229      -10.1115804354  MEMB      79              0.0000000000
     10534        85  POPS      H4X           -14.3258909574      -15.5723058261      -10.5198221894  MEMB      79              0.0000000000
     10535        85  POPS      H4Y           -15.4123395068      -14.4452171024       -9.6649951796  MEMB      79              0.0000000000
     10536        85  POPS      C35           -13.2375884692      -14.1484067946       -9.1540596040  MEMB      79              0.0000000000
     10537        85  POPS      H5X           -13.4886134497      -13.1488330429       -8.7391384087  MEMB      79              0.0000000000
     10538        85  POPS      H5Y           -12.3501606712      -14.0412970515       -9.8138476967  MEMB      79              0.0000000000
     10539        85  POPS      C36           -12.9372314791      -15.2135936912       -8.0483808398  MEMB      79              0.0000000000
     10540        85  POPS      H6X           -12.6183927938      -16.1812418066       -8.4914611452  MEMB      79              0.0000000000
     10541        85  POPS      H6Y           -13.8812529982      -15.3013554935       -7.4692068291  MEMB      79              0.0000000000
     10542        85  POPS      C37           -11.9591933606      -14.7308490306       -6.9855678301  MEMB      79              0.0000000000
     10543        85  POPS      H7X           -11.0455963589      -14.3746511942       -7.5078553306  MEMB      79              0.0000000000
     10544        85  POPS      H7Y           -11.7791626457      -15.6680725718       -6.4167776538  MEMB      79              0.0000000000
     10545        85  POPS      C38           -12.4961299104      -13.7745150155       -5.8337780010  MEMB      79              0.0000000000
     10546        85  POPS      H8X           -13.5619828162      -14.0426961319       -5.6714281673  MEMB      79              0.0000000000
     10547        85  POPS      H8Y           -12.5361595698      -12.7086130404       -6.1445373390  MEMB      79              0.0000000000
     10548        85  POPS      C39           -11.8854136158      -13.7111134253       -4.3665480383  MEMB      79              0.0000000000
     10549        85  POPS      H9X           -12.2215259759      -12.7814668585       -3.8594909724  MEMB      79              0.0000000000
     10550        85  POPS      H9Y           -10.7922786769      -13.5981593828       -4.5296995006  MEMB      79              0.0000000000
     10551        85  POPS      C310          -12.2272806997      -14.9259498901       -3.4293414604  MEMB      79              0.0000000000
     10552        85  POPS      H10X          -12.2625421489      -15.8141790204       -4.0957700767  MEMB      79              0.0000000000
     10553        85  POPS      H10Y          -13.2395539741      -14.8382045715       -2.9799817743  MEMB      79              0.0000000000
     10554        85  POPS      C311          -11.1949044263      -15.1223610529       -2.3122130221  MEMB      79              0.0000000000
     10555        85  POPS      H11X          -10.2058916134      -15.1343836891       -2.8182082469  MEMB      79              0.0000000000
     10556        85  POPS      H11Y          -11.4228297375      -15.9813194680       -1.6454592307  MEMB      79              0.0000000000
     10557        85  POPS      C312          -11.3117524408      -13.9264444029       -1.2742199026  MEMB      79              0.0000000000
     10558        85  POPS      H12X          -12.3638204488      -13.5976495011       -1.1350522451  MEMB      79              0.0000000000
     10559        85  POPS      H12Y          -10.8054915514      -13.0990804670       -1.8159674935  MEMB      79              0.0000000000
     10560        85  POPS      C313          -10.5954923757      -14.1995631582        0.0563947657  MEMB      79              0.0000000000
     10561        85  POPS      H13X          -11.0071480492      -15.1135870493        0.5353743979  MEMB      79              0.0000000000
     10562        85  POPS      H13Y          -10.7206413507      -13.2863059414        0.6765730024  MEMB      79              0.0000000000
     10563        85  POPS      C314           -9.0873530429      -14.3096931232       -0.0315995590  MEMB      79              0.0000000000
     10564        85  POPS      H14X           -8.6750172058      -14.2370480252       -1.0606869701  MEMB      79              0.0000000000
     10565        85  POPS      H14Y           -8.7406907430      -15.2749880607        0.3954282775  MEMB      79              0.0000000000
     10566        85  POPS      C315           -8.3405348184      -13.2240428791        0.6883897939  MEMB      79              0.0000000000
     10567        85  POPS      H15X           -7.2515989810      -13.3795093825        0.8444968329  MEMB      79              0.0000000000
     10568        85  POPS      H15Y           -8.8789829342      -13.0085938848        1.6360060563  MEMB      79              0.0000000000
     10569        85  POPS      C316           -8.3435972493      -11.9141573562       -0.0118483538  MEMB      79              0.0000000000
     10570        85  POPS      H16X           -7.9729202879      -12.0417408308       -1.0513895470  MEMB      79              0.0000000000
     10571        85  POPS      H16Y           -7.7058018570      -11.1492802093        0.4805951718  MEMB      79              0.0000000000
     10572        85  POPS      H16Z           -9.3781651920      -11.5374492558       -0.1604447960  MEMB      79              0.0000000000
     10573        86  POPC      N              -7.6040574641      -16.0467521446      -19.5478029844  MEMB      80              0.0000000000
     10574        86  POPC      C12            -6.5942153243      -14.9686926642      -20.0910445771  MEMB      80              0.0000000000
     10575        86  POPC      H12A           -6.6219828801      -14.0635465811      -19.5025386679  MEMB      80              0.0000000000
     10576        86  POPC      H12B           -6.9674841400      -14.7935858744      -21.0892470571  MEMB      80              0.0000000000
     10577        86  POPC      C13            -7.1339926631      -16.5477122478      -18.2565097294  MEMB      80              0.0000000000
     10578        86  POPC      H13A           -7.9328949254      -17.1092749893      -17.7952047488  MEMB      80              0.0000000000
     10579        86  POPC      H13B           -6.2673813133      -17.1881403088      -18.3288743633  MEMB      80              0.0000000000
     10580        86  POPC      H13C           -6.8908832715      -15.6987280584      -17.6347993693  MEMB      80              0.0000000000
     10581        86  POPC      C14            -8.9788639665      -15.3946038804      -19.3164835417  MEMB      80              0.0000000000
     10582        86  POPC      H14A           -9.4839070658      -14.8907857375      -20.1273464716  MEMB      80              0.0000000000
     10583        86  POPC      H14B           -9.6369449530      -16.1225410696      -18.8654443008  MEMB      80              0.0000000000
     10584        86  POPC      H14C           -8.9372212378      -14.7559695114      -18.4465340682  MEMB      80              0.0000000000
     10585        86  POPC      C15            -7.7193817857      -17.3026799411      -20.4370761056  MEMB      80              0.0000000000
     10586        86  POPC      H15A           -6.7674677197      -17.7935317632      -20.5760876121  MEMB      80              0.0000000000
     10587        86  POPC      H15B           -7.9989459316      -17.0803652622      -21.4563012462  MEMB      80              0.0000000000
     10588        86  POPC      H15C           -8.4167243585      -17.9981488234      -19.9938652730  MEMB      80              0.0000000000
     10589        86  POPC      C11            -5.0530505263      -15.3340768484      -20.1199205835  MEMB      80              0.0000000000
     10590        86  POPC      H11A           -4.5415262791      -14.5905824685      -20.7679019888  MEMB      80              0.0000000000
     10591        86  POPC      H11B           -5.0206801643      -16.3324086388      -20.6063430532  MEMB      80              0.0000000000
     10592        86  POPC      P              -3.2677767669      -15.8841661240      -18.2904459538  MEMB      80              0.0000000000
     10593        86  POPC      O13            -2.4454815328      -16.5146642726      -19.3485059942  MEMB      80              0.0000000000
     10594        86  POPC      O14            -3.4140151038      -16.6574128242      -17.0270257893  MEMB      80              0.0000000000
     10595        86  POPC      O12            -4.6397718595      -15.3394303376      -18.7792406426  MEMB      80              0.0000000000
     10596        86  POPC      O11            -2.5947850570      -14.4519227144      -17.7859440975  MEMB      80              0.0000000000
     10597        86  POPC      C1             -3.3085561963      -13.5773069944      -16.9575829218  MEMB      80              0.0000000000
     10598        86  POPC      HA             -4.2499291534      -14.0749130938      -16.6405245665  MEMB      80              0.0000000000
     10599        86  POPC      HB             -3.5222078724      -12.5858350610      -17.4110776542  MEMB      80              0.0000000000
     10600        86  POPC      C2             -2.5239393521      -13.4107108181      -15.5995552467  MEMB      80              0.0000000000
     10601        86  POPC      HS             -1.6187210321      -12.7745139871      -15.7003245420  MEMB      80              0.0000000000
     10602        86  POPC      O21            -2.0956720632      -14.7688772096      -15.2130177592  MEMB      80              0.0000000000
     10603        86  POPC      C21            -1.0223931617      -14.7801761062      -14.4790068322  MEMB      80              0.0000000000
     10604        86  POPC      O22            -0.3649849120      -13.8388500994      -14.0505686982  MEMB      80              0.0000000000
     10605        86  POPC      C22            -0.6899250107      -16.2570109444      -14.1272075456  MEMB      80              0.0000000000
     10606        86  POPC      H2R            -0.0193712706      -16.3750670774      -13.2492886524  MEMB      80              0.0000000000
     10607        86  POPC      H2S            -0.2829746147      -16.7467273209      -15.0376417696  MEMB      80              0.0000000000
     10608        86  POPC      C3             -3.4495433043      -12.9149182596      -14.5096982014  MEMB      80              0.0000000000
     10609        86  POPC      HX             -3.7999770213      -11.9025783135      -14.8041218212  MEMB      80              0.0000000000
     10610        86  POPC      HY             -2.9356520911      -12.7143541910      -13.5453273654  MEMB      80              0.0000000000
     10611        86  POPC      O31            -4.5030765674      -13.9080953554      -14.3230045586  MEMB      80              0.0000000000
     10612        86  POPC      C31            -5.6131015956      -13.4585051042      -13.8824027308  MEMB      80              0.0000000000
     10613        86  POPC      O32            -5.8693448107      -12.3380096084      -13.3578098164  MEMB      80              0.0000000000
     10614        86  POPC      C32            -6.6729994630      -14.5580354928      -14.1058364358  MEMB      80              0.0000000000
     10615        86  POPC      H2X            -6.4312463400      -15.4528407841      -13.4933008131  MEMB      80              0.0000000000
     10616        86  POPC      H2Y            -6.5246525562      -14.8147536587      -15.1765418970  MEMB      80              0.0000000000
     10617        86  POPC      C23            -1.9190755922      -17.1284349908      -13.7378970401  MEMB      80              0.0000000000
     10618        86  POPC      H3R            -1.6959888366      -18.1911069717      -13.5027774871  MEMB      80              0.0000000000
     10619        86  POPC      H3S            -2.5501430578      -17.0599297124      -14.6496985013  MEMB      80              0.0000000000
     10620        86  POPC      C24            -2.7641153812      -16.5280289126      -12.6154229537  MEMB      80              0.0000000000
     10621        86  POPC      H4R            -3.7975663021      -16.9342199954      -12.6516034525  MEMB      80              0.0000000000
     10622        86  POPC      H4S            -2.8093813362      -15.4180179982      -12.6275830894  MEMB      80              0.0000000000
     10623        86  POPC      C25            -2.0943231465      -16.8708643677      -11.2611568493  MEMB      80              0.0000000000
     10624        86  POPC      H5R            -0.9873986229      -16.8194191621      -11.3411091608  MEMB      80              0.0000000000
     10625        86  POPC      H5S            -2.3658719701      -17.9117077731      -10.9832589197  MEMB      80              0.0000000000
     10626        86  POPC      C26            -2.3143478953      -15.8332206357      -10.1320119451  MEMB      80              0.0000000000
     10627        86  POPC      H6R            -2.0149690158      -14.8700197788      -10.5977773128  MEMB      80              0.0000000000
     10628        86  POPC      H6S            -1.6215921708      -15.9699788413       -9.2742777807  MEMB      80              0.0000000000
     10629        86  POPC      C27            -3.8301970132      -15.6013675480       -9.7849791114  MEMB      80              0.0000000000
     10630        86  POPC      H7R            -4.1714493325      -16.3895445098       -9.0802488134  MEMB      80              0.0000000000
     10631        86  POPC      H7S            -4.4371816503      -15.6303397171      -10.7150609823  MEMB      80              0.0000000000
     10632        86  POPC      C28            -4.0355173511      -14.2765058505       -8.9957786161  MEMB      80              0.0000000000
     10633        86  POPC      H8R            -5.0637525005      -13.8644849278       -8.9103838467  MEMB      80              0.0000000000
     10634        86  POPC      H8S            -3.6349104786      -13.4871826163       -9.6671982169  MEMB      80              0.0000000000
     10635        86  POPC      C29            -3.2152033368      -14.1654156853       -7.7487722940  MEMB      80              0.0000000000
     10636        86  POPC      H91            -2.1305255748      -14.3384823184       -7.8081199896  MEMB      80              0.0000000000
     10637        86  POPC      C210           -3.6432182734      -13.7184965819       -6.5626344047  MEMB      80              0.0000000000
     10638        86  POPC      H101           -2.9285105581      -13.6865182417       -5.7270682734  MEMB      80              0.0000000000
     10639        86  POPC      C211           -5.0126229083      -13.2316332051       -6.2363079270  MEMB      80              0.0000000000
     10640        86  POPC      H11R           -5.5628046742      -14.0448187834       -5.7163554665  MEMB      80              0.0000000000
     10641        86  POPC      H11S           -5.6481421865      -13.1394272110       -7.1429132307  MEMB      80              0.0000000000
     10642        86  POPC      C212           -5.1136031644      -11.9464962464       -5.3532206681  MEMB      80              0.0000000000
     10643        86  POPC      H12R           -4.6954921804      -11.0858511145       -5.9178397613  MEMB      80              0.0000000000
     10644        86  POPC      H12S           -4.5659495975      -12.0008867910       -4.3881105127  MEMB      80              0.0000000000
     10645        86  POPC      C213           -6.5907209635      -11.5714140089       -5.0306241380  MEMB      80              0.0000000000
     10646        86  POPC      H13R           -6.9983977936      -11.1020185817       -5.9513787517  MEMB      80              0.0000000000
     10647        86  POPC      H13S           -6.6075188465      -10.9203086511       -4.1305687164  MEMB      80              0.0000000000
     10648        86  POPC      C214           -7.5681953256      -12.6676788743       -4.7038758183  MEMB      80              0.0000000000
     10649        86  POPC      H14R           -7.4013038622      -13.6195458718       -5.2519792955  MEMB      80              0.0000000000
     10650        86  POPC      H14S           -8.6388868457      -12.3785067534       -4.7696021998  MEMB      80              0.0000000000
     10651        86  POPC      C215           -7.3858989725      -13.0354958966       -3.2436656089  MEMB      80              0.0000000000
     10652        86  POPC      H15R           -8.0274759749      -12.3679865962       -2.6295549766  MEMB      80              0.0000000000
     10653        86  POPC      H15S           -6.3324717694      -13.0023795828       -2.8922180896  MEMB      80              0.0000000000
     10654        86  POPC      C216           -7.8871023567      -14.3817311226       -2.9110232013  MEMB      80              0.0000000000
     10655        86  POPC      H16R           -7.3040580461      -15.2408346701       -3.3063986171  MEMB      80              0.0000000000
     10656        86  POPC      H16S           -8.9185290503      -14.4533315285       -3.3176595787  MEMB      80              0.0000000000
     10657        86  POPC      C217           -7.9968328353      -14.5824511262       -1.4086089840  MEMB      80              0.0000000000
     10658        86  POPC      H17R           -8.5817278817      -15.5219170731       -1.3105173218  MEMB      80              0.0000000000
     10659        86  POPC      H17S           -8.7075516063      -13.8260421307       -1.0123192902  MEMB      80              0.0000000000
     10660        86  POPC      C218           -6.7284252425      -14.4780014405       -0.5897041497  MEMB      80              0.0000000000
     10661        86  POPC      H18R           -5.9613004675      -15.2497139134       -0.8139814112  MEMB      80              0.0000000000
     10662        86  POPC      H18S           -6.9581454702      -14.4972000021        0.4971181037  MEMB      80              0.0000000000
     10663        86  POPC      H18T           -6.2884595947      -13.4787499978       -0.7952464007  MEMB      80              0.0000000000
     10664        86  POPC      C33            -8.0989382753      -14.1884365503      -13.6354782310  MEMB      80              0.0000000000
     10665        86  POPC      H3X            -8.9262065909      -14.8248999902      -14.0160866869  MEMB      80              0.0000000000
     10666        86  POPC      H3Y            -8.3235655274      -13.2557272665      -14.1957611546  MEMB      80              0.0000000000
     10667        86  POPC      C34            -8.3494268015      -14.0288117477      -12.1140898285  MEMB      80              0.0000000000
     10668        86  POPC      H4X            -9.3545584761      -13.5621079038      -12.0352316431  MEMB      80              0.0000000000
     10669        86  POPC      H4Y            -7.6636954072      -13.3830658926      -11.5249331269  MEMB      80              0.0000000000
     10670        86  POPC      C35            -8.4686635959      -15.3437444297      -11.3723736246  MEMB      80              0.0000000000
     10671        86  POPC      H5X            -7.5893890316      -15.9496533135      -11.6790843539  MEMB      80              0.0000000000
     10672        86  POPC      H5Y            -9.4111875481      -15.8965118942      -11.5734137124  MEMB      80              0.0000000000
     10673        86  POPC      C36            -8.4472716164      -15.1744925030       -9.8116262138  MEMB      80              0.0000000000
     10674        86  POPC      H6X            -9.4375518976      -14.7443216596       -9.5496726015  MEMB      80              0.0000000000
     10675        86  POPC      H6Y            -7.7481714632      -14.3723810509       -9.4919429068  MEMB      80              0.0000000000
     10676        86  POPC      C37            -8.0355063426      -16.4050352901       -9.0479006802  MEMB      80              0.0000000000
     10677        86  POPC      H7X            -7.0680031203      -16.7791963407       -9.4457220563  MEMB      80              0.0000000000
     10678        86  POPC      H7Y            -8.8302342450      -17.1410663489       -9.2948558739  MEMB      80              0.0000000000
     10679        86  POPC      C38            -7.9337242182      -16.2684145872       -7.5080272964  MEMB      80              0.0000000000
     10680        86  POPC      H8X            -8.9427139810      -16.2904369086       -7.0435108731  MEMB      80              0.0000000000
     10681        86  POPC      H8Y            -7.4865235916      -15.2730286096       -7.2993666607  MEMB      80              0.0000000000
     10682        86  POPC      C39            -7.0100121271      -17.3424331017       -6.8112742157  MEMB      80              0.0000000000
     10683        86  POPC      H9X            -6.0116366145      -17.2976252815       -7.2966188224  MEMB      80              0.0000000000
     10684        86  POPC      H9Y            -7.4167629044      -18.3691901212       -6.9322930012  MEMB      80              0.0000000000
     10685        86  POPC      C310           -6.7227076248      -17.1490945930       -5.2865333297  MEMB      80              0.0000000000
     10686        86  POPC      H10X           -7.6716273584      -17.2402355278       -4.7159494140  MEMB      80              0.0000000000
     10687        86  POPC      H10Y           -6.2003554846      -16.1967568453       -5.0530339169  MEMB      80              0.0000000000
     10688        86  POPC      C311           -5.7874754614      -18.3249158987       -4.7161946522  MEMB      80              0.0000000000
     10689        86  POPC      H11X           -4.8631533966      -18.3118625776       -5.3324571428  MEMB      80              0.0000000000
     10690        86  POPC      H11Y           -6.3328684369      -19.2485780832       -5.0055305247  MEMB      80              0.0000000000
     10691        86  POPC      C312           -5.5203881104      -18.0858091543       -3.1926715127  MEMB      80              0.0000000000
     10692        86  POPC      H12X           -5.0230065792      -19.0460443351       -2.9379544649  MEMB      80              0.0000000000
     10693        86  POPC      H12Y           -6.3866029302      -17.8310659012       -2.5452918149  MEMB      80              0.0000000000
     10694        86  POPC      C313           -4.5315114873      -16.9752061214       -2.7947782719  MEMB      80              0.0000000000
     10695        86  POPC      H13X           -4.1628498202      -17.2341097381       -1.7792104184  MEMB      80              0.0000000000
     10696        86  POPC      H13Y           -5.0094341803      -15.9775255175       -2.8974643757  MEMB      80              0.0000000000
     10697        86  POPC      C314           -3.3579273815      -16.8641295224       -3.7893451218  MEMB      80              0.0000000000
     10698        86  POPC      H14X           -3.8628353562      -16.5350415135       -4.7226667356  MEMB      80              0.0000000000
     10699        86  POPC      H14Y           -2.9101657990      -17.8746477213       -3.9019643028  MEMB      80              0.0000000000
     10700        86  POPC      C315           -2.3072224624      -15.8202158776       -3.4391962880  MEMB      80              0.0000000000
     10701        86  POPC      H15X           -1.8327435766      -15.6691875532       -4.4323630569  MEMB      80              0.0000000000
     10702        86  POPC      H15Y           -1.6459498181      -16.3355908446       -2.7102038011  MEMB      80              0.0000000000
     10703        86  POPC      C316           -2.6718740514      -14.5177893230       -2.8544531400  MEMB      80              0.0000000000
     10704        86  POPC      H16X           -1.7993441455      -13.8813241758       -2.5938291822  MEMB      80              0.0000000000
     10705        86  POPC      H16Y           -3.3880784590      -14.4949001983       -2.0054261307  MEMB      80              0.0000000000
     10706        86  POPC      H16Z           -3.3979679226      -14.0209109709       -3.5328496119  MEMB      80              0.0000000000
     10707        87  POPC      N             -14.9443289523        7.7968542407      -20.7133403415  MEMB      81              0.0000000000
     10708        87  POPC      C12           -14.6829159872        6.3249558112      -20.4941825404  MEMB      81              0.0000000000
     10709        87  POPC      H12A          -13.9787407193        6.0021647482      -21.2467404025  MEMB      81              0.0000000000
     10710        87  POPC      H12B          -15.6029067393        5.7930521119      -20.6867837070  MEMB      81              0.0000000000
     10711        87  POPC      C13           -15.6456152973        8.0812505304      -21.9968420507  MEMB      81              0.0000000000
     10712        87  POPC      H13A          -14.9105499158        7.9024656670      -22.7676304281  MEMB      81              0.0000000000
     10713        87  POPC      H13B          -16.4034327829        7.3287585958      -22.1576793920  MEMB      81              0.0000000000
     10714        87  POPC      H13C          -16.0128778938        9.0966152119      -22.0203508346  MEMB      81              0.0000000000
     10715        87  POPC      C14           -15.7725867937        8.3673945399      -19.5546194821  MEMB      81              0.0000000000
     10716        87  POPC      H14A          -16.6562798052        7.7468083077      -19.5356601958  MEMB      81              0.0000000000
     10717        87  POPC      H14B          -15.3387543698        8.1752941944      -18.5844202020  MEMB      81              0.0000000000
     10718        87  POPC      H14C          -16.1364433361        9.3759193555      -19.6845663485  MEMB      81              0.0000000000
     10719        87  POPC      C15           -13.6122056985        8.5807135903      -20.8160025072  MEMB      81              0.0000000000
     10720        87  POPC      H15A          -13.7393428930        9.6483496406      -20.9179311284  MEMB      81              0.0000000000
     10721        87  POPC      H15B          -13.0862302730        8.2445195414      -21.6973216254  MEMB      81              0.0000000000
     10722        87  POPC      H15C          -13.0374656993        8.3792354788      -19.9241053147  MEMB      81              0.0000000000
     10723        87  POPC      C11           -14.2607990614        5.8036240663      -19.1185025010  MEMB      81              0.0000000000
     10724        87  POPC      H11A          -14.2805320349        4.6928773182      -19.1053343727  MEMB      81              0.0000000000
     10725        87  POPC      H11B          -15.0519081255        6.0392205883      -18.3748884987  MEMB      81              0.0000000000
     10726        87  POPC      P             -12.7236344891        6.6474555297      -17.2017642894  MEMB      81              0.0000000000
     10727        87  POPC      O13           -11.2832602473        6.6042540258      -16.9736457212  MEMB      81              0.0000000000
     10728        87  POPC      O14           -13.5726377051        5.9966473217      -16.2344730018  MEMB      81              0.0000000000
     10729        87  POPC      O12           -13.0137231382        6.2472273522      -18.6577435767  MEMB      81              0.0000000000
     10730        87  POPC      O11           -13.2112014329        8.1705022490      -17.2388839870  MEMB      81              0.0000000000
     10731        87  POPC      C1            -13.8653197197        8.8628291421      -16.2470737847  MEMB      81              0.0000000000
     10732        87  POPC      HA            -14.5700691568        8.2145671623      -15.6836861250  MEMB      81              0.0000000000
     10733        87  POPC      HB            -14.5037310754        9.6621872734      -16.6804079816  MEMB      81              0.0000000000
     10734        87  POPC      C2            -12.7382202633        9.3730743638      -15.2765013162  MEMB      81              0.0000000000
     10735        87  POPC      HS            -11.8063940020        9.4378201991      -15.8780234837  MEMB      81              0.0000000000
     10736        87  POPC      O21           -12.4585791938        8.3152115813      -14.3238135397  MEMB      81              0.0000000000
     10737        87  POPC      C21           -11.3517428135        8.4050039054      -13.5875066925  MEMB      81              0.0000000000
     10738        87  POPC      O22           -10.5144644073        9.2844798759      -13.6517487694  MEMB      81              0.0000000000
     10739        87  POPC      C22           -11.4199623478        7.2418947270      -12.6371770870  MEMB      81              0.0000000000
     10740        87  POPC      H2R           -11.2650268628        6.2773659654      -13.1663275910  MEMB      81              0.0000000000
     10741        87  POPC      H2S           -12.4345728069        7.0441382787      -12.2300177824  MEMB      81              0.0000000000
     10742        87  POPC      C3            -13.1162457459       10.6996722266      -14.5058373265  MEMB      81              0.0000000000
     10743        87  POPC      HX            -13.3215725029       11.5222426741      -15.2238483749  MEMB      81              0.0000000000
     10744        87  POPC      HY            -12.3027316407       11.2080271388      -13.9453989577  MEMB      81              0.0000000000
     10745        87  POPC      O31           -14.3143053627       10.4618425755      -13.7630023018  MEMB      81              0.0000000000
     10746        87  POPC      C31           -14.2640625591       10.4323307535      -12.4444360101  MEMB      81              0.0000000000
     10747        87  POPC      O32           -13.3006152093       10.5679441733      -11.7553349985  MEMB      81              0.0000000000
     10748        87  POPC      C32           -15.7159535500       10.3600427737      -11.9380933598  MEMB      81              0.0000000000
     10749        87  POPC      H2X           -16.3653331185       10.0581192305      -12.7874865964  MEMB      81              0.0000000000
     10750        87  POPC      H2Y           -16.1322404966       11.2898632634      -11.4948557537  MEMB      81              0.0000000000
     10751        87  POPC      C23           -10.5416428023        7.4114024913      -11.4230661636  MEMB      81              0.0000000000
     10752        87  POPC      H3R            -9.5134735933        7.7258147578      -11.7029483132  MEMB      81              0.0000000000
     10753        87  POPC      H3S           -10.5257277318        6.3856009608      -10.9966874678  MEMB      81              0.0000000000
     10754        87  POPC      C24           -10.9790856956        8.3178212338      -10.2765608373  MEMB      81              0.0000000000
     10755        87  POPC      H4R           -12.0872597269        8.2401491914      -10.2919917408  MEMB      81              0.0000000000
     10756        87  POPC      H4S           -10.6485578334        9.3305387913      -10.5919582342  MEMB      81              0.0000000000
     10757        87  POPC      C25           -10.4475331789        8.0653173028       -8.9008861827  MEMB      81              0.0000000000
     10758        87  POPC      H5R            -9.4046077552        7.6839910247       -8.9357855967  MEMB      81              0.0000000000
     10759        87  POPC      H5S           -11.0820683962        7.2234586788       -8.5502301203  MEMB      81              0.0000000000
     10760        87  POPC      C26           -10.5900598002        9.3023843417       -8.0602719696  MEMB      81              0.0000000000
     10761        87  POPC      H6R            -9.9170401500       10.0904969612       -8.4605770139  MEMB      81              0.0000000000
     10762        87  POPC      H6S           -10.0927858979        9.0065093159       -7.1118531532  MEMB      81              0.0000000000
     10763        87  POPC      C27           -12.1070126916        9.7855765537       -7.7672679026  MEMB      81              0.0000000000
     10764        87  POPC      H7R           -12.6115129804        8.9523762819       -7.2328734334  MEMB      81              0.0000000000
     10765        87  POPC      H7S           -12.7233516734        9.9796820367       -8.6710210212  MEMB      81              0.0000000000
     10766        87  POPC      C28           -12.1789413285       11.1688918550       -6.8836114597  MEMB      81              0.0000000000
     10767        87  POPC      H8R           -11.5624013388       11.9961022330       -7.2958282097  MEMB      81              0.0000000000
     10768        87  POPC      H8S           -11.8655732691       10.8470590102       -5.8674696317  MEMB      81              0.0000000000
     10769        87  POPC      C29           -13.6067757527       11.6492542503       -6.9175898274  MEMB      81              0.0000000000
     10770        87  POPC      H91           -13.7641552747       12.4093252921       -7.6970284247  MEMB      81              0.0000000000
     10771        87  POPC      C210          -14.6888668369       11.2091055451       -6.2530256920  MEMB      81              0.0000000000
     10772        87  POPC      H101          -15.6752631627       11.6917272913       -6.3170454598  MEMB      81              0.0000000000
     10773        87  POPC      C211          -14.6258736141       10.0280749294       -5.3067845150  MEMB      81              0.0000000000
     10774        87  POPC      H11R          -14.6292280541       10.3540956625       -4.2447014118  MEMB      81              0.0000000000
     10775        87  POPC      H11S          -13.6687019877        9.5138984930       -5.5386585942  MEMB      81              0.0000000000
     10776        87  POPC      C212          -15.5997257875        8.8986139000       -5.7503605497  MEMB      81              0.0000000000
     10777        87  POPC      H12R          -15.1728282504        8.0084748494       -5.2407209759  MEMB      81              0.0000000000
     10778        87  POPC      H12S          -15.5771233680        8.8091924037       -6.8575255461  MEMB      81              0.0000000000
     10779        87  POPC      C213          -17.0954811449        9.1770087330       -5.3461331800  MEMB      81              0.0000000000
     10780        87  POPC      H13R          -17.3611539956       10.0908262594       -5.9194366420  MEMB      81              0.0000000000
     10781        87  POPC      H13S          -16.9551127277        9.3324237817       -4.2550496579  MEMB      81              0.0000000000
     10782        87  POPC      C214          -18.0934534297        8.0256436723       -5.4954188386  MEMB      81              0.0000000000
     10783        87  POPC      H14R          -17.8999968550        7.5330349546       -6.4722667819  MEMB      81              0.0000000000
     10784        87  POPC      H14S          -19.1584562746        8.3418532808       -5.5054993425  MEMB      81              0.0000000000
     10785        87  POPC      C215          -17.9044367415        6.9417607582       -4.5499249014  MEMB      81              0.0000000000
     10786        87  POPC      H15R          -16.8572279766        6.5983205343       -4.4094845656  MEMB      81              0.0000000000
     10787        87  POPC      H15S          -18.4999440639        6.1200741075       -5.0021666791  MEMB      81              0.0000000000
     10788        87  POPC      C216          -18.6119782020        7.1148404521       -3.1552901575  MEMB      81              0.0000000000
     10789        87  POPC      H16R          -19.6697871802        7.3060849929       -3.4359802718  MEMB      81              0.0000000000
     10790        87  POPC      H16S          -18.1959966553        8.0504001250       -2.7240044924  MEMB      81              0.0000000000
     10791        87  POPC      C217          -18.6140659209        5.8472195419       -2.2375473415  MEMB      81              0.0000000000
     10792        87  POPC      H17R          -17.6725722526        5.3759110562       -2.5922006228  MEMB      81              0.0000000000
     10793        87  POPC      H17S          -19.4039572944        5.1571395459       -2.6038567822  MEMB      81              0.0000000000
     10794        87  POPC      C218          -18.7501957770        6.0717172115       -0.7616099645  MEMB      81              0.0000000000
     10795        87  POPC      H18R          -17.9808536854        6.7855328903       -0.3970522893  MEMB      81              0.0000000000
     10796        87  POPC      H18S          -18.6408997774        5.1508706946       -0.1497129020  MEMB      81              0.0000000000
     10797        87  POPC      H18T          -19.7249953383        6.5475243374       -0.5214117198  MEMB      81              0.0000000000
     10798        87  POPC      C33           -16.0142758923        9.3961222642      -10.8087708255  MEMB      81              0.0000000000
     10799        87  POPC      H3X           -17.0821123732        9.2317899642      -10.5498472621  MEMB      81              0.0000000000
     10800        87  POPC      H3Y           -15.5116851528        9.8634748115       -9.9350974333  MEMB      81              0.0000000000
     10801        87  POPC      C34           -15.4186210136        7.9879790766      -10.9369184043  MEMB      81              0.0000000000
     10802        87  POPC      H4X           -14.3123713549        7.8854236275      -10.9407977298  MEMB      81              0.0000000000
     10803        87  POPC      H4Y           -15.6653974768        7.5831535605      -11.9416766294  MEMB      81              0.0000000000
     10804        87  POPC      C35           -15.8875475315        7.0337435936       -9.8095080489  MEMB      81              0.0000000000
     10805        87  POPC      H5X           -16.9616593203        6.8316313560      -10.0088952219  MEMB      81              0.0000000000
     10806        87  POPC      H5Y           -15.9004510793        7.5551370784       -8.8285374424  MEMB      81              0.0000000000
     10807        87  POPC      C36           -15.2676959366        5.6402801117       -9.6519814858  MEMB      81              0.0000000000
     10808        87  POPC      H6X           -14.1713932855        5.7594260939       -9.7870591599  MEMB      81              0.0000000000
     10809        87  POPC      H6Y           -15.6807258315        4.9107665444      -10.3810483825  MEMB      81              0.0000000000
     10810        87  POPC      C37           -15.4606162163        5.1416777525       -8.2396904811  MEMB      81              0.0000000000
     10811        87  POPC      H7X           -15.2859602963        4.0483586200       -8.1476592304  MEMB      81              0.0000000000
     10812        87  POPC      H7Y           -16.4674693076        5.4631254645       -7.8972874269  MEMB      81              0.0000000000
     10813        87  POPC      C38           -14.3920325697        5.7442995210       -7.2371783482  MEMB      81              0.0000000000
     10814        87  POPC      H8X           -15.0404664963        6.0406696862       -6.3851111092  MEMB      81              0.0000000000
     10815        87  POPC      H8Y           -13.8611240720        6.5285335314       -7.8180689554  MEMB      81              0.0000000000
     10816        87  POPC      C39           -13.4206800343        4.6339550329       -6.6633295880  MEMB      81              0.0000000000
     10817        87  POPC      H9X           -12.7426678944        4.2840453304       -7.4709082115  MEMB      81              0.0000000000
     10818        87  POPC      H9Y           -14.1380243495        3.8492323015       -6.3409187603  MEMB      81              0.0000000000
     10819        87  POPC      C310          -12.5951039822        4.9061299791       -5.4426666847  MEMB      81              0.0000000000
     10820        87  POPC      H10X          -12.4118908280        3.8778588207       -5.0639680465  MEMB      81              0.0000000000
     10821        87  POPC      H10Y          -13.1297942049        5.5120718954       -4.6802617853  MEMB      81              0.0000000000
     10822        87  POPC      C311          -11.2292611127        5.5580328283       -5.7172472714  MEMB      81              0.0000000000
     10823        87  POPC      H11X          -11.4078006841        6.3667221182       -6.4578326199  MEMB      81              0.0000000000
     10824        87  POPC      H11Y          -10.5245901627        4.7717003406       -6.0628499056  MEMB      81              0.0000000000
     10825        87  POPC      C312          -10.6543038510        6.1604253147       -4.4544876317  MEMB      81              0.0000000000
     10826        87  POPC      H12X           -9.5821712853        6.3286497460       -4.6922980508  MEMB      81              0.0000000000
     10827        87  POPC      H12Y          -10.6233776466        5.3354245593       -3.7110239360  MEMB      81              0.0000000000
     10828        87  POPC      C313          -11.2305774630        7.4252555528       -3.8722196264  MEMB      81              0.0000000000
     10829        87  POPC      H13X          -12.3139684420        7.1794254332       -3.8598601483  MEMB      81              0.0000000000
     10830        87  POPC      H13Y          -11.0993052109        8.1533552086       -4.7010494717  MEMB      81              0.0000000000
     10831        87  POPC      C314          -10.6921778565        7.8618536179       -2.5055456756  MEMB      81              0.0000000000
     10832        87  POPC      H14X           -9.5819591706        7.8386290643       -2.4709626967  MEMB      81              0.0000000000
     10833        87  POPC      H14Y          -11.0472474599        7.1153780679       -1.7632382016  MEMB      81              0.0000000000
     10834        87  POPC      C315          -11.1841310260        9.2808371737       -2.0336384076  MEMB      81              0.0000000000
     10835        87  POPC      H15X          -12.2950786566        9.2841806015       -2.0233962630  MEMB      81              0.0000000000
     10836        87  POPC      H15Y          -10.7654305970       10.1030376431       -2.6525062134  MEMB      81              0.0000000000
     10837        87  POPC      C316          -10.8703405782        9.7401620606       -0.5702344702  MEMB      81              0.0000000000
     10838        87  POPC      H16X          -11.3177456287       10.7243624929       -0.3143080338  MEMB      81              0.0000000000
     10839        87  POPC      H16Y           -9.7721418534        9.7062414149       -0.4055226577  MEMB      81              0.0000000000
     10840        87  POPC      H16Z          -11.3342055165        9.0318285962        0.1490793723  MEMB      81              0.0000000000
     10841        88  POPS      N               9.3635883680      -20.6714151940      -21.3192251219  MEMB      82              0.0000000000
     10842        88  POPS      HN1            10.1807589462      -21.2954227452      -21.4755798580  MEMB      82              0.0000000000
     10843        88  POPS      HN2             8.5280152589      -21.0692514701      -20.8447319473  MEMB      82              0.0000000000
     10844        88  POPS      HN3             9.1228090831      -20.3557015517      -22.2804485186  MEMB      82              0.0000000000
     10845        88  POPS      C12             9.7037310354      -19.4092884047      -20.6473841087  MEMB      82              0.0000000000
     10846        88  POPS      H12A            8.9296323332      -18.7362857190      -20.9853759729  MEMB      82              0.0000000000
     10847        88  POPS      C13            11.0979884865      -18.9391977696      -21.1204917046  MEMB      82              0.0000000000
     10848        88  POPS      O13A           11.8220996706      -19.6431265661      -21.9133170532  MEMB      82              0.0000000000
     10849        88  POPS      O13B           11.4758897651      -17.8673269429      -20.5971674584  MEMB      82              0.0000000000
     10850        88  POPS      C11             9.5410706515      -19.5714882204      -19.1016615834  MEMB      82              0.0000000000
     10851        88  POPS      H11A           10.2195007082      -20.3931305843      -18.7870865527  MEMB      82              0.0000000000
     10852        88  POPS      H11B            8.4740491336      -19.7967840776      -18.8894642736  MEMB      82              0.0000000000
     10853        88  POPS      P               9.4581822259      -18.3454478990      -16.8040327308  MEMB      82              0.0000000000
     10854        88  POPS      O13             7.9855910078      -18.0344959915      -16.8596952084  MEMB      82              0.0000000000
     10855        88  POPS      O14            10.3384837523      -17.3976258571      -16.0729390510  MEMB      82              0.0000000000
     10856        88  POPS      O12             9.8895176642      -18.3936073320      -18.3677924377  MEMB      82              0.0000000000
     10857        88  POPS      O11             9.6663170669      -19.7941336235      -16.1962935461  MEMB      82              0.0000000000
     10858        88  POPS      C1              8.6013142275      -20.7766875850      -15.9100911857  MEMB      82              0.0000000000
     10859        88  POPS      HA              9.1073731642      -21.7245607645      -15.6276697901  MEMB      82              0.0000000000
     10860        88  POPS      HB              8.0064893773      -20.9821123227      -16.8256810846  MEMB      82              0.0000000000
     10861        88  POPS      C2              7.7028796346      -20.4518281783      -14.6764459449  MEMB      82              0.0000000000
     10862        88  POPS      HS              7.0862694102      -19.5442018916      -14.8505932946  MEMB      82              0.0000000000
     10863        88  POPS      O21             8.6277232187      -20.1318626957      -13.6122091883  MEMB      82              0.0000000000
     10864        88  POPS      C21             8.0631783406      -19.5313403333      -12.6008814640  MEMB      82              0.0000000000
     10865        88  POPS      O22             6.8835942855      -19.2690576337      -12.3854812848  MEMB      82              0.0000000000
     10866        88  POPS      C22             9.2237219701      -19.1602447728      -11.6924246793  MEMB      82              0.0000000000
     10867        88  POPS      H2R             9.6598532850      -18.2895748034      -12.2272559850  MEMB      82              0.0000000000
     10868        88  POPS      H2S             9.9937888325      -19.9343741239      -11.4873837778  MEMB      82              0.0000000000
     10869        88  POPS      C3              6.9307184763      -21.6622769651      -14.3138608843  MEMB      82              0.0000000000
     10870        88  POPS      HX              6.2774620411      -21.9276143943      -15.1724488949  MEMB      82              0.0000000000
     10871        88  POPS      HY              6.3419519426      -21.4031634101      -13.4080268845  MEMB      82              0.0000000000
     10872        88  POPS      O31             7.8458247231      -22.7919202934      -14.0569740140  MEMB      82              0.0000000000
     10873        88  POPS      C31             7.8888578420      -23.2249888951      -12.7557774795  MEMB      82              0.0000000000
     10874        88  POPS      O32             7.3442420601      -22.7110314174      -11.7927994476  MEMB      82              0.0000000000
     10875        88  POPS      C32             8.7861941278      -24.4628683559      -12.6963188964  MEMB      82              0.0000000000
     10876        88  POPS      H2X             8.4428233418      -25.1366747175      -13.5101998367  MEMB      82              0.0000000000
     10877        88  POPS      H2Y             8.7040787532      -24.9457009843      -11.6990975216  MEMB      82              0.0000000000
     10878        88  POPS      C23             8.7978482096      -18.7876286902      -10.2401346880  MEMB      82              0.0000000000
     10879        88  POPS      H3R             8.4318960174      -19.7790907192       -9.8974939138  MEMB      82              0.0000000000
     10880        88  POPS      H3S             8.0711907415      -17.9688294139      -10.4294960903  MEMB      82              0.0000000000
     10881        88  POPS      C24             9.9608977925      -18.4661054243       -9.4070840916  MEMB      82              0.0000000000
     10882        88  POPS      H4R            10.5733896949      -19.3917916561       -9.4548318303  MEMB      82              0.0000000000
     10883        88  POPS      H4S             9.6427166606      -18.3907928384       -8.3452883358  MEMB      82              0.0000000000
     10884        88  POPS      C25            10.8591358333      -17.2620473920       -9.8305007062  MEMB      82              0.0000000000
     10885        88  POPS      H5R            10.2029472669      -16.3662681935       -9.8667934877  MEMB      82              0.0000000000
     10886        88  POPS      H5S            11.2724924777      -17.3748937509      -10.8555482171  MEMB      82              0.0000000000
     10887        88  POPS      C26            12.0916193702      -16.8314755295       -9.0375157120  MEMB      82              0.0000000000
     10888        88  POPS      H6R            12.5148195443      -15.9846612474       -9.6190039305  MEMB      82              0.0000000000
     10889        88  POPS      H6S            12.8573721775      -17.6357753369       -9.0051768201  MEMB      82              0.0000000000
     10890        88  POPS      C27            11.8959752470      -16.1977858721       -7.6355968595  MEMB      82              0.0000000000
     10891        88  POPS      H7R            11.0434445505      -15.4894122684       -7.5599694180  MEMB      82              0.0000000000
     10892        88  POPS      H7S            12.8898702012      -15.8064231477       -7.3300985835  MEMB      82              0.0000000000
     10893        88  POPS      C28            11.4908649399      -17.1780118879       -6.4840789444  MEMB      82              0.0000000000
     10894        88  POPS      H8R            12.0760131711      -18.0875022839       -6.7385379378  MEMB      82              0.0000000000
     10895        88  POPS      H8S            10.3959347318      -17.3292292674       -6.5962495782  MEMB      82              0.0000000000
     10896        88  POPS      C29            11.9435197812      -16.8117481630       -5.1338752535  MEMB      82              0.0000000000
     10897        88  POPS      H91            11.4752472206      -15.8690649318       -4.8143930244  MEMB      82              0.0000000000
     10898        88  POPS      C210           12.7561076592      -17.3575918314       -4.1550163748  MEMB      82              0.0000000000
     10899        88  POPS      H101           12.8092085400      -16.7715924143       -3.2256162884  MEMB      82              0.0000000000
     10900        88  POPS      C211           13.5164311313      -18.6078549756       -4.1386669535  MEMB      82              0.0000000000
     10901        88  POPS      H11R           14.4980307407      -18.4622768027       -3.6390770723  MEMB      82              0.0000000000
     10902        88  POPS      H11S           13.7953367956      -18.9187841238       -5.1681598857  MEMB      82              0.0000000000
     10903        88  POPS      C212           12.7922605922      -19.7304941332       -3.5102040634  MEMB      82              0.0000000000
     10904        88  POPS      H12R           13.2190203051      -20.7295789253       -3.7426408862  MEMB      82              0.0000000000
     10905        88  POPS      H12S           11.7629303445      -19.7736855355       -3.9260583779  MEMB      82              0.0000000000
     10906        88  POPS      C213           12.7443262294      -19.5512405388       -1.9657513826  MEMB      82              0.0000000000
     10907        88  POPS      H13R           12.1366036951      -18.6552294330       -1.7164365954  MEMB      82              0.0000000000
     10908        88  POPS      H13S           13.7861563023      -19.2437561558       -1.7325896140  MEMB      82              0.0000000000
     10909        88  POPS      C214           12.1067551808      -20.7266895260       -1.2142901904  MEMB      82              0.0000000000
     10910        88  POPS      H14R           12.5458793471      -20.7846044611       -0.1954007546  MEMB      82              0.0000000000
     10911        88  POPS      H14S           12.5022911175      -21.5877617295       -1.7943136334  MEMB      82              0.0000000000
     10912        88  POPS      C215           10.5105661562      -20.7985432086       -0.9540790028  MEMB      82              0.0000000000
     10913        88  POPS      H15R            9.9978550183      -21.0426576372       -1.9089903881  MEMB      82              0.0000000000
     10914        88  POPS      H15S           10.1244095803      -19.8904923246       -0.4435428979  MEMB      82              0.0000000000
     10915        88  POPS      C216           10.1546787077      -22.0689504572       -0.0469559261  MEMB      82              0.0000000000
     10916        88  POPS      H16R           10.7354913923      -22.0755312694        0.9001110797  MEMB      82              0.0000000000
     10917        88  POPS      H16S           10.3790132747      -23.0595850971       -0.4971085643  MEMB      82              0.0000000000
     10918        88  POPS      C217            8.6733580724      -22.1812866495        0.2881309896  MEMB      82              0.0000000000
     10919        88  POPS      H17R            8.5893691879      -23.1323412629        0.8562524626  MEMB      82              0.0000000000
     10920        88  POPS      H17S            8.1170672661      -22.2286896692       -0.6723973887  MEMB      82              0.0000000000
     10921        88  POPS      C218            7.9904867890      -20.9750890390        1.0175695197  MEMB      82              0.0000000000
     10922        88  POPS      H18R            8.4439827028      -20.9447584903        2.0313468703  MEMB      82              0.0000000000
     10923        88  POPS      H18S            6.9165844179      -21.1049330733        1.2709372131  MEMB      82              0.0000000000
     10924        88  POPS      H18T            8.0306050717      -19.9907276956        0.5040090379  MEMB      82              0.0000000000
     10925        88  POPS      C33            10.3609688312      -24.1808464413      -12.9688608507  MEMB      82              0.0000000000
     10926        88  POPS      H3X            10.6022933245      -23.4920954012      -13.8065394630  MEMB      82              0.0000000000
     10927        88  POPS      H3Y            10.7794495951      -25.1869204516      -13.1856780791  MEMB      82              0.0000000000
     10928        88  POPS      C34            11.0680124907      -23.4978621274      -11.7717477083  MEMB      82              0.0000000000
     10929        88  POPS      H4X            10.4688274183      -22.6143912592      -11.4638886080  MEMB      82              0.0000000000
     10930        88  POPS      H4Y            12.0032761921      -23.2253864945      -12.3059383688  MEMB      82              0.0000000000
     10931        88  POPS      C35            11.2022339102      -24.4565377248      -10.5725881135  MEMB      82              0.0000000000
     10932        88  POPS      H5X            11.8635274430      -25.3170733481      -10.8102642537  MEMB      82              0.0000000000
     10933        88  POPS      H5Y            10.1864310314      -24.6523854860      -10.1674842750  MEMB      82              0.0000000000
     10934        88  POPS      C36            11.9820227929      -23.7989044279       -9.4232030369  MEMB      82              0.0000000000
     10935        88  POPS      H6X            12.8167671575      -23.1200077243       -9.7000090792  MEMB      82              0.0000000000
     10936        88  POPS      H6Y            12.4220153025      -24.6022809960       -8.7944624099  MEMB      82              0.0000000000
     10937        88  POPS      C37            10.9561562974      -23.1082953898       -8.4753126516  MEMB      82              0.0000000000
     10938        88  POPS      H7X             9.9208504256      -23.5093921322       -8.4355099375  MEMB      82              0.0000000000
     10939        88  POPS      H7Y            10.9104091974      -22.1251347756       -8.9906987580  MEMB      82              0.0000000000
     10940        88  POPS      C38            11.5474696116      -22.9099062996       -7.0911760409  MEMB      82              0.0000000000
     10941        88  POPS      H8X            12.5537077855      -22.4486696243       -7.1863931598  MEMB      82              0.0000000000
     10942        88  POPS      H8Y            11.7959222871      -23.9278638964       -6.7219141555  MEMB      82              0.0000000000
     10943        88  POPS      C39            10.7472476519      -21.9382445831       -6.1814061693  MEMB      82              0.0000000000
     10944        88  POPS      H9X            10.9479213000      -20.9883213832       -6.7214959096  MEMB      82              0.0000000000
     10945        88  POPS      H9Y            11.2147748781      -21.7705762579       -5.1876123451  MEMB      82              0.0000000000
     10946        88  POPS      C310            9.2202461468      -22.2892766548       -6.0420791840  MEMB      82              0.0000000000
     10947        88  POPS      H10X            9.3170108007      -23.3782997585       -5.8446290322  MEMB      82              0.0000000000
     10948        88  POPS      H10Y            8.7369884971      -22.0806454754       -7.0204736163  MEMB      82              0.0000000000
     10949        88  POPS      C311            8.4810901247      -21.5805718264       -4.8788661600  MEMB      82              0.0000000000
     10950        88  POPS      H11X            8.8750857513      -22.0117735426       -3.9337979971  MEMB      82              0.0000000000
     10951        88  POPS      H11Y            7.4304231153      -21.9243208756       -4.9895755695  MEMB      82              0.0000000000
     10952        88  POPS      C312            8.5289036639      -20.0230886977       -4.9010302167  MEMB      82              0.0000000000
     10953        88  POPS      H12X            8.2674601437      -19.7091884080       -5.9341973967  MEMB      82              0.0000000000
     10954        88  POPS      H12Y            9.5465111184      -19.5899358237       -4.7953200211  MEMB      82              0.0000000000
     10955        88  POPS      C313            7.5895825401      -19.3430937170       -3.8669902382  MEMB      82              0.0000000000
     10956        88  POPS      H13X            7.7515581765      -19.7704696069       -2.8543523427  MEMB      82              0.0000000000
     10957        88  POPS      H13Y            6.5459342491      -19.4646032472       -4.2280369367  MEMB      82              0.0000000000
     10958        88  POPS      C314            7.9505882099      -17.8362588292       -3.7060287429  MEMB      82              0.0000000000
     10959        88  POPS      H14X            7.0402330721      -17.4256913481       -3.2191927035  MEMB      82              0.0000000000
     10960        88  POPS      H14Y            8.0944677422      -17.4797482048       -4.7483910995  MEMB      82              0.0000000000
     10961        88  POPS      C315            9.1484886401      -17.6496137852       -2.7573355638  MEMB      82              0.0000000000
     10962        88  POPS      H15X            9.9464472289      -16.9450501710       -3.0754128819  MEMB      82              0.0000000000
     10963        88  POPS      H15Y            9.7466204685      -18.5796716393       -2.6498573390  MEMB      82              0.0000000000
     10964        88  POPS      C316            8.6821539768      -17.3608622706       -1.3870265330  MEMB      82              0.0000000000
     10965        88  POPS      H16X            8.1229336415      -18.2359181857       -0.9922214208  MEMB      82              0.0000000000
     10966        88  POPS      H16Y            7.9876885667      -16.4970188191       -1.3107788610  MEMB      82              0.0000000000
     10967        88  POPS      H16Z            9.5467993739      -17.3951074481       -0.6902204801  MEMB      82              0.0000000000
     10968        89  POPC      N              13.7538858421       14.7222822690      -20.2566199431  MEMB      83              0.0000000000
     10969        89  POPC      C12            13.2958941938       15.6985028572      -19.1552224299  MEMB      83              0.0000000000
     10970        89  POPC      H12A           12.4395637732       15.2318979597      -18.6911339961  MEMB      83              0.0000000000
     10971        89  POPC      H12B           12.8894684496       16.5586444857      -19.6664703202  MEMB      83              0.0000000000
     10972        89  POPC      C13            14.8258489590       15.3539502514      -21.1523619489  MEMB      83              0.0000000000
     10973        89  POPC      H13A           15.6354807492       15.7158795815      -20.5359987212  MEMB      83              0.0000000000
     10974        89  POPC      H13B           15.2184079721       14.6910281864      -21.9092184498  MEMB      83              0.0000000000
     10975        89  POPC      H13C           14.3265154553       16.0844654569      -21.7715657856  MEMB      83              0.0000000000
     10976        89  POPC      C14            14.4085327028       13.5793513680      -19.5510431788  MEMB      83              0.0000000000
     10977        89  POPC      H14A           14.6779410123       12.8651629328      -20.3150811657  MEMB      83              0.0000000000
     10978        89  POPC      H14B           15.2229115115       13.9533056902      -18.9482618917  MEMB      83              0.0000000000
     10979        89  POPC      H14C           13.7508525732       13.0981366899      -18.8423195774  MEMB      83              0.0000000000
     10980        89  POPC      C15            12.6178725095       14.1521617698      -21.2010610307  MEMB      83              0.0000000000
     10981        89  POPC      H15A           12.8610259746       13.5539041604      -22.0667194899  MEMB      83              0.0000000000
     10982        89  POPC      H15B           12.0774141065       14.9952636516      -21.6053923571  MEMB      83              0.0000000000
     10983        89  POPC      H15C           11.9070636264       13.5729174383      -20.6304240610  MEMB      83              0.0000000000
     10984        89  POPC      C11            14.3724619974       16.1875093384      -18.1909321906  MEMB      83              0.0000000000
     10985        89  POPC      H11A           14.5097901341       15.3447787799      -17.4801106928  MEMB      83              0.0000000000
     10986        89  POPC      H11B           13.9152945016       17.0096709268      -17.5998576517  MEMB      83              0.0000000000
     10987        89  POPC      P              16.8040988921       17.1275910626      -17.8903004298  MEMB      83              0.0000000000
     10988        89  POPC      O13            16.4565136618       18.4018738266      -17.2772458354  MEMB      83              0.0000000000
     10989        89  POPC      O14            18.0435214032       17.1496401933      -18.7318794931  MEMB      83              0.0000000000
     10990        89  POPC      O12            15.5951148036       16.5517732982      -18.7698605147  MEMB      83              0.0000000000
     10991        89  POPC      O11            16.9618280307       15.9421481632      -16.8234730001  MEMB      83              0.0000000000
     10992        89  POPC      C1             17.2248368981       14.6311308403      -17.3444696608  MEMB      83              0.0000000000
     10993        89  POPC      HA             18.0325559516       14.7160190184      -18.1025625222  MEMB      83              0.0000000000
     10994        89  POPC      HB             16.4005762519       14.2827944865      -18.0029354282  MEMB      83              0.0000000000
     10995        89  POPC      C2             17.6615250363       13.5639906138      -16.3254544994  MEMB      83              0.0000000000
     10996        89  POPC      HS             17.6873929771       12.6079958462      -16.8908977371  MEMB      83              0.0000000000
     10997        89  POPC      O21            16.7374374899       13.5312790709      -15.2563846152  MEMB      83              0.0000000000
     10998        89  POPC      C21            15.4818194861       13.2968624515      -15.4984572211  MEMB      83              0.0000000000
     10999        89  POPC      O22            15.0550396147       12.8207277912      -16.5544220899  MEMB      83              0.0000000000
     11000        89  POPC      C22            14.5331321973       13.7480550034      -14.3649184133  MEMB      83              0.0000000000
     11001        89  POPC      H2R            14.5704214115       13.0190680264      -13.5273570671  MEMB      83              0.0000000000
     11002        89  POPC      H2S            13.4848708667       13.7720543106      -14.7321964243  MEMB      83              0.0000000000
     11003        89  POPC      C3             19.1390771226       13.8706155253      -15.7731466118  MEMB      83              0.0000000000
     11004        89  POPC      HX             19.8127172315       13.7884145776      -16.6527904706  MEMB      83              0.0000000000
     11005        89  POPC      HY             19.3140117309       13.0816656445      -15.0107313460  MEMB      83              0.0000000000
     11006        89  POPC      O31            19.3652157232       15.2185722837      -15.2241877049  MEMB      83              0.0000000000
     11007        89  POPC      C31            19.3263099208       15.2921990490      -13.9486881721  MEMB      83              0.0000000000
     11008        89  POPC      O32            19.4687556677       14.3415250541      -13.2017295238  MEMB      83              0.0000000000
     11009        89  POPC      C32            19.3533951225       16.7942339676      -13.4432019338  MEMB      83              0.0000000000
     11010        89  POPC      H2X            19.0637512801       17.4444374461      -14.2962335691  MEMB      83              0.0000000000
     11011        89  POPC      H2Y            20.2617088692       17.2323842920      -12.9770354987  MEMB      83              0.0000000000
     11012        89  POPC      C23            14.9118834952       15.1046275285      -13.8027797600  MEMB      83              0.0000000000
     11013        89  POPC      H3R            14.6925464964       15.8828086179      -14.5647812562  MEMB      83              0.0000000000
     11014        89  POPC      H3S            15.9811615829       15.1518405983      -13.5048935455  MEMB      83              0.0000000000
     11015        89  POPC      C24            13.9277796415       15.4283972176      -12.5781883958  MEMB      83              0.0000000000
     11016        89  POPC      H4R            13.8147744788       14.5998223404      -11.8467413541  MEMB      83              0.0000000000
     11017        89  POPC      H4S            12.9050494082       15.5114635668      -13.0041506025  MEMB      83              0.0000000000
     11018        89  POPC      C25            14.4910583436       16.7057592495      -11.8939055752  MEMB      83              0.0000000000
     11019        89  POPC      H5R            14.9269429259       17.4025142505      -12.6414740193  MEMB      83              0.0000000000
     11020        89  POPC      H5S            15.2605644767       16.3265225248      -11.1879590045  MEMB      83              0.0000000000
     11021        89  POPC      C26            13.4107524521       17.5435616959      -11.0887805347  MEMB      83              0.0000000000
     11022        89  POPC      H6R            12.5083541353       16.9036283183      -10.9863916282  MEMB      83              0.0000000000
     11023        89  POPC      H6S            13.0657686412       18.3700879659      -11.7461706390  MEMB      83              0.0000000000
     11024        89  POPC      C27            13.6887926401       17.8325960502       -9.5806274047  MEMB      83              0.0000000000
     11025        89  POPC      H7R            13.0554373329       18.6454109341       -9.1652793734  MEMB      83              0.0000000000
     11026        89  POPC      H7S            14.6885527856       18.3120968232       -9.5107726102  MEMB      83              0.0000000000
     11027        89  POPC      C28            13.6083704246       16.5474199894       -8.6806098960  MEMB      83              0.0000000000
     11028        89  POPC      H8R            12.5363098758       16.2607971007       -8.7340365540  MEMB      83              0.0000000000
     11029        89  POPC      H8S            13.9560223978       16.9070856821       -7.6885913044  MEMB      83              0.0000000000
     11030        89  POPC      C29            14.5521486518       15.3844452842       -8.9821258236  MEMB      83              0.0000000000
     11031        89  POPC      H91            15.5866589061       15.7394264021       -8.8647503423  MEMB      83              0.0000000000
     11032        89  POPC      C210           14.3952397947       14.0845897567       -9.3023207266  MEMB      83              0.0000000000
     11033        89  POPC      H101           15.3614311701       13.6069678732       -9.5222108295  MEMB      83              0.0000000000
     11034        89  POPC      C211           13.0878180520       13.4033583913       -9.3597834487  MEMB      83              0.0000000000
     11035        89  POPC      H11R           12.9180645836       12.8249972936      -10.2930591942  MEMB      83              0.0000000000
     11036        89  POPC      H11S           12.2485056617       14.1311646921       -9.3466019260  MEMB      83              0.0000000000
     11037        89  POPC      C212           12.7358700312       12.3448003158       -8.2332920872  MEMB      83              0.0000000000
     11038        89  POPC      H12R           13.3349094841       11.4354531980       -8.4536570711  MEMB      83              0.0000000000
     11039        89  POPC      H12S           11.6531680619       12.1111439086       -8.3197903083  MEMB      83              0.0000000000
     11040        89  POPC      C213           13.0645895014       12.9208403867       -6.8068129959  MEMB      83              0.0000000000
     11041        89  POPC      H13R           14.1327507575       13.2263681749       -6.8045346720  MEMB      83              0.0000000000
     11042        89  POPC      H13S           12.9892775064       12.0171607680       -6.1649313092  MEMB      83              0.0000000000
     11043        89  POPC      C214           11.9676771910       13.8180799498       -6.1745377432  MEMB      83              0.0000000000
     11044        89  POPC      H14R           10.9862915818       13.5439835076       -6.6173408360  MEMB      83              0.0000000000
     11045        89  POPC      H14S           12.0685676829       14.8912742819       -6.4436037565  MEMB      83              0.0000000000
     11046        89  POPC      C215           11.8588581585       13.4806230106       -4.6686109059  MEMB      83              0.0000000000
     11047        89  POPC      H15R           11.6388251039       12.3943581679       -4.5915682940  MEMB      83              0.0000000000
     11048        89  POPC      H15S           10.9953079022       14.0595621066       -4.2769085570  MEMB      83              0.0000000000
     11049        89  POPC      C216           13.1820484303       13.7252374107       -3.9913452109  MEMB      83              0.0000000000
     11050        89  POPC      H16R           13.5324992252       14.7665975559       -4.1558874049  MEMB      83              0.0000000000
     11051        89  POPC      H16S           13.9598612220       13.0032506167       -4.3200757002  MEMB      83              0.0000000000
     11052        89  POPC      C217           13.0836401637       13.4643484963       -2.4597795840  MEMB      83              0.0000000000
     11053        89  POPC      H17R           12.5452802475       12.4982847997       -2.3539027016  MEMB      83              0.0000000000
     11054        89  POPC      H17S           12.4519522147       14.2369894523       -1.9716015161  MEMB      83              0.0000000000
     11055        89  POPC      C218           14.5131087619       13.3979393665       -1.8420164007  MEMB      83              0.0000000000
     11056        89  POPC      H18R           14.2897512274       13.2610782966       -0.7623400433  MEMB      83              0.0000000000
     11057        89  POPC      H18S           15.0909042375       14.3233099463       -2.0521665592  MEMB      83              0.0000000000
     11058        89  POPC      H18T           15.0372884229       12.5098182255       -2.2552926541  MEMB      83              0.0000000000
     11059        89  POPC      C33            18.3429675353       17.0057289172      -12.3180607151  MEMB      83              0.0000000000
     11060        89  POPC      H3X            18.1237265656       16.0443797839      -11.8061404522  MEMB      83              0.0000000000
     11061        89  POPC      H3Y            17.3583356850       17.2993191993      -12.7407022952  MEMB      83              0.0000000000
     11062        89  POPC      C34            18.6765166641       18.2704076029      -11.3760011967  MEMB      83              0.0000000000
     11063        89  POPC      H4X            18.4491984113       19.1523565227      -12.0122504296  MEMB      83              0.0000000000
     11064        89  POPC      H4Y            19.6625323662       18.3500976972      -10.8702904588  MEMB      83              0.0000000000
     11065        89  POPC      C35            17.6236444225       18.3272305290      -10.2037906622  MEMB      83              0.0000000000
     11066        89  POPC      H5X            17.4738584490       17.2908581065       -9.8325529118  MEMB      83              0.0000000000
     11067        89  POPC      H5Y            16.6364710468       18.6191658802      -10.6216218369  MEMB      83              0.0000000000
     11068        89  POPC      C36            17.9543132647       19.4063194390       -9.0644684479  MEMB      83              0.0000000000
     11069        89  POPC      H6X            18.0511501163       20.3490270100       -9.6443352753  MEMB      83              0.0000000000
     11070        89  POPC      H6Y            18.9374252666       19.2609156934       -8.5678093264  MEMB      83              0.0000000000
     11071        89  POPC      C37            16.8437762860       19.6790916534       -8.0208290218  MEMB      83              0.0000000000
     11072        89  POPC      H7X            15.9155757988       19.9502050713       -8.5678775630  MEMB      83              0.0000000000
     11073        89  POPC      H7Y            17.1656809412       20.4381734443       -7.2761858002  MEMB      83              0.0000000000
     11074        89  POPC      C38            16.4559332130       18.4817613519       -7.1760276636  MEMB      83              0.0000000000
     11075        89  POPC      H8X            16.3420551568       17.5717596836       -7.8031238902  MEMB      83              0.0000000000
     11076        89  POPC      H8Y            15.5459305942       18.6597236868       -6.5640264059  MEMB      83              0.0000000000
     11077        89  POPC      C39            17.4462893743       18.2374203145       -6.0298625976  MEMB      83              0.0000000000
     11078        89  POPC      H9X            17.5830524613       19.1017991713       -5.3454164851  MEMB      83              0.0000000000
     11079        89  POPC      H9Y            18.4887455142       18.1727694692       -6.4085799611  MEMB      83              0.0000000000
     11080        89  POPC      C310           17.1054736684       16.9355889561       -5.2877833725  MEMB      83              0.0000000000
     11081        89  POPC      H10X           17.0179448673       16.0737191376       -5.9833695374  MEMB      83              0.0000000000
     11082        89  POPC      H10Y           16.0367301414       17.0373887002       -5.0018722428  MEMB      83              0.0000000000
     11083        89  POPC      C311           18.0671707449       16.5636852921       -4.1604591137  MEMB      83              0.0000000000
     11084        89  POPC      H11X           18.5042093038       17.4492759110       -3.6514920721  MEMB      83              0.0000000000
     11085        89  POPC      H11Y           18.8490562281       16.0481905485       -4.7581559440  MEMB      83              0.0000000000
     11086        89  POPC      C312           17.4969629822       15.5071315246       -3.1497710259  MEMB      83              0.0000000000
     11087        89  POPC      H12X           17.0329142241       14.6846876855       -3.7350614745  MEMB      83              0.0000000000
     11088        89  POPC      H12Y           16.7817412384       15.9580093892       -2.4290153978  MEMB      83              0.0000000000
     11089        89  POPC      C313           18.6022133624       14.9892331914       -2.0836763966  MEMB      83              0.0000000000
     11090        89  POPC      H13X           19.2381137762       15.8837704211       -1.9111820584  MEMB      83              0.0000000000
     11091        89  POPC      H13Y           19.1080054734       14.1417019402       -2.5937606695  MEMB      83              0.0000000000
     11092        89  POPC      C314           18.0377197222       14.3610958926       -0.8239227676  MEMB      83              0.0000000000
     11093        89  POPC      H14X           17.3011475344       13.5804839924       -1.1110255247  MEMB      83              0.0000000000
     11094        89  POPC      H14Y           17.3753971659       15.0469326601       -0.2535924206  MEMB      83              0.0000000000
     11095        89  POPC      C315           18.9695765384       13.8243648159        0.2022598981  MEMB      83              0.0000000000
     11096        89  POPC      H15X           19.0138677130       14.4994195166        1.0835422238  MEMB      83              0.0000000000
     11097        89  POPC      H15Y           19.9910729552       13.8102841433       -0.2343956615  MEMB      83              0.0000000000
     11098        89  POPC      C316           18.7056332046       12.4123790231        0.7740218917  MEMB      83              0.0000000000
     11099        89  POPC      H16X           18.8420991900       11.6637671333       -0.0354705101  MEMB      83              0.0000000000
     11100        89  POPC      H16Y           17.6682575935       12.3368322595        1.1644899296  MEMB      83              0.0000000000
     11101        89  POPC      H16Z           19.4675676080       12.3190887669        1.5771872002  MEMB      83              0.0000000000
     11102        90  POPC      N               6.7956419338       18.0942331383      -18.5872266437  MEMB      84              0.0000000000
     11103        90  POPC      C12             8.1544329707       18.3230283796      -19.3850952309  MEMB      84              0.0000000000
     11104        90  POPC      H12A            7.9065648184       18.3570435394      -20.4357161348  MEMB      84              0.0000000000
     11105        90  POPC      H12B            8.8030742658       17.4725432988      -19.2356312838  MEMB      84              0.0000000000
     11106        90  POPC      C13             5.8023195463       19.1380425094      -18.9706482962  MEMB      84              0.0000000000
     11107        90  POPC      H13A            6.0546839637       20.1637347424      -18.7455535271  MEMB      84              0.0000000000
     11108        90  POPC      H13B            5.5221535368       19.1191455822      -20.0135049786  MEMB      84              0.0000000000
     11109        90  POPC      H13C            4.8720763335       18.8164820914      -18.5260735446  MEMB      84              0.0000000000
     11110        90  POPC      C14             6.2579407135       16.7230575958      -18.9249755166  MEMB      84              0.0000000000
     11111        90  POPC      H14A            5.3133169598       16.5878657852      -18.4191995195  MEMB      84              0.0000000000
     11112        90  POPC      H14B            6.2148778006       16.5222998933      -19.9852782370  MEMB      84              0.0000000000
     11113        90  POPC      H14C            6.8483330144       15.8856359826      -18.5835635631  MEMB      84              0.0000000000
     11114        90  POPC      C15             7.0356052366       18.0279420842      -17.1256300234  MEMB      84              0.0000000000
     11115        90  POPC      H15A            7.6819183205       17.1917196257      -16.9033424537  MEMB      84              0.0000000000
     11116        90  POPC      H15B            6.1274959495       17.8637427915      -16.5645811677  MEMB      84              0.0000000000
     11117        90  POPC      H15C            7.6184113550       18.8491552575      -16.7353146493  MEMB      84              0.0000000000
     11118        90  POPC      C11             9.0402314399       19.5554898268      -19.1258762010  MEMB      84              0.0000000000
     11119        90  POPC      H11A            9.7638707532       19.7264285856      -19.9513742475  MEMB      84              0.0000000000
     11120        90  POPC      H11B            9.5627662228       19.3552381468      -18.1660962010  MEMB      84              0.0000000000
     11121        90  POPC      P               8.7744140433       22.0996363596      -19.4071223877  MEMB      84              0.0000000000
     11122        90  POPC      O13             8.2442200647       23.1843311094      -18.5614856080  MEMB      84              0.0000000000
     11123        90  POPC      O14             8.5226769504       22.2523783177      -20.8401535267  MEMB      84              0.0000000000
     11124        90  POPC      O12             8.2255212470       20.7250076278      -18.9027577832  MEMB      84              0.0000000000
     11125        90  POPC      O11            10.3533268845       21.8961236467      -19.1690288110  MEMB      84              0.0000000000
     11126        90  POPC      C1             11.0514764656       22.7915243734      -18.3897609036  MEMB      84              0.0000000000
     11127        90  POPC      HA             10.8413000699       23.8629189392      -18.5953346295  MEMB      84              0.0000000000
     11128        90  POPC      HB             12.0792213323       22.6682220807      -18.7933176586  MEMB      84              0.0000000000
     11129        90  POPC      C2             11.0629231355       22.3992770228      -16.8869797439  MEMB      84              0.0000000000
     11130        90  POPC      HS             11.6016859042       21.4344964502      -16.7718534858  MEMB      84              0.0000000000
     11131        90  POPC      O21             9.7660653484       22.3474880712      -16.2163753507  MEMB      84              0.0000000000
     11132        90  POPC      C21             9.4148855568       21.2189064740      -15.5670834361  MEMB      84              0.0000000000
     11133        90  POPC      O22            10.0705588245       20.1925498325      -15.5936869983  MEMB      84              0.0000000000
     11134        90  POPC      C22             8.2538299924       21.5441166750      -14.6200796826  MEMB      84              0.0000000000
     11135        90  POPC      H2R             7.7580467523       20.6026461323      -14.3004654649  MEMB      84              0.0000000000
     11136        90  POPC      H2S             7.5403387180       22.1416221460      -15.2269061364  MEMB      84              0.0000000000
     11137        90  POPC      C3             11.9513590197       23.2661805826      -16.0015683729  MEMB      84              0.0000000000
     11138        90  POPC      HX             11.4679170030       24.2515749594      -15.8295136477  MEMB      84              0.0000000000
     11139        90  POPC      HY             12.8607054327       23.3821360473      -16.6292342581  MEMB      84              0.0000000000
     11140        90  POPC      O31            12.2478909254       22.5821441166      -14.7492904678  MEMB      84              0.0000000000
     11141        90  POPC      C31            12.4854725150       23.3157153025      -13.6895216331  MEMB      84              0.0000000000
     11142        90  POPC      O32            12.4012487779       24.5400296779      -13.6571351428  MEMB      84              0.0000000000
     11143        90  POPC      C32            13.0333227464       22.3801235548      -12.6053441111  MEMB      84              0.0000000000
     11144        90  POPC      H2X            14.1093051265       22.2430120636      -12.8457250934  MEMB      84              0.0000000000
     11145        90  POPC      H2Y            12.5134702385       21.4012703574      -12.5283954898  MEMB      84              0.0000000000
     11146        90  POPC      C23             8.8686147643       22.4263437885      -13.4804504320  MEMB      84              0.0000000000
     11147        90  POPC      H3R             9.0936534112       23.4557777059      -13.8325075818  MEMB      84              0.0000000000
     11148        90  POPC      H3S             9.7784960527       21.9465451572      -13.0606526621  MEMB      84              0.0000000000
     11149        90  POPC      C24             8.0711672519       22.4364940462      -12.1747003570  MEMB      84              0.0000000000
     11150        90  POPC      H4R             8.6925525776       22.9481109015      -11.4089005576  MEMB      84              0.0000000000
     11151        90  POPC      H4S             7.8915669369       21.3946317760      -11.8332509533  MEMB      84              0.0000000000
     11152        90  POPC      C25             6.7280089103       23.1019773229      -12.2507814283  MEMB      84              0.0000000000
     11153        90  POPC      H5R             5.9504102354       22.6885280823      -12.9280711212  MEMB      84              0.0000000000
     11154        90  POPC      H5S             6.8167088541       24.2063006279      -12.3339869806  MEMB      84              0.0000000000
     11155        90  POPC      C26             6.0009769085       22.9109345252      -10.8313447751  MEMB      84              0.0000000000
     11156        90  POPC      H6R             6.0367457944       21.8671797940      -10.4523757252  MEMB      84              0.0000000000
     11157        90  POPC      H6S             4.9683090193       23.2516897105      -11.0589490969  MEMB      84              0.0000000000
     11158        90  POPC      C27             6.4995899637       23.7845998363       -9.6738294675  MEMB      84              0.0000000000
     11159        90  POPC      H7R             6.4084153229       24.8671195649       -9.9065508101  MEMB      84              0.0000000000
     11160        90  POPC      H7S             7.5967042744       23.6117408491       -9.6458838812  MEMB      84              0.0000000000
     11161        90  POPC      C28             5.7789221356       23.3970977740       -8.3480979862  MEMB      84              0.0000000000
     11162        90  POPC      H8R             6.4646779719       22.9188039706       -7.6164588713  MEMB      84              0.0000000000
     11163        90  POPC      H8S             5.1679677511       22.5291351805       -8.6762690697  MEMB      84              0.0000000000
     11164        90  POPC      C29             4.9577828062       24.4190176891       -7.6521875123  MEMB      84              0.0000000000
     11165        90  POPC      H91             4.1504610688       24.8154003874       -8.2855214535  MEMB      84              0.0000000000
     11166        90  POPC      C210            5.2079388063       24.9762936424       -6.4363852460  MEMB      84              0.0000000000
     11167        90  POPC      H101            4.5710084250       25.7547576895       -5.9910604949  MEMB      84              0.0000000000
     11168        90  POPC      C211            6.4446600974       24.6691797812       -5.6059390485  MEMB      84              0.0000000000
     11169        90  POPC      H11R            6.7462119495       23.6033622088       -5.6920826354  MEMB      84              0.0000000000
     11170        90  POPC      H11S            6.0414691181       24.8834497007       -4.5930987972  MEMB      84              0.0000000000
     11171        90  POPC      C212            7.6815576957       25.5170337947       -5.9602838255  MEMB      84              0.0000000000
     11172        90  POPC      H12R            7.5498569810       26.5793527959       -5.6628719666  MEMB      84              0.0000000000
     11173        90  POPC      H12S            7.7363285629       25.4808781718       -7.0693440588  MEMB      84              0.0000000000
     11174        90  POPC      C213            9.0058423962       25.0848824276       -5.3001444025  MEMB      84              0.0000000000
     11175        90  POPC      H13R            8.8925578143       24.7119443725       -4.2597576281  MEMB      84              0.0000000000
     11176        90  POPC      H13S            9.7871518666       25.8741209866       -5.2688549753  MEMB      84              0.0000000000
     11177        90  POPC      C214            9.7362978786       23.9691803219       -6.0750048576  MEMB      84              0.0000000000
     11178        90  POPC      H14R           10.1831868667       24.3538407862       -7.0166239614  MEMB      84              0.0000000000
     11179        90  POPC      H14S            9.0249973474       23.1515410743       -6.3196243533  MEMB      84              0.0000000000
     11180        90  POPC      C215           10.8210318116       23.2673441692       -5.2586363191  MEMB      84              0.0000000000
     11181        90  POPC      H15R           11.3862352632       24.0218831373       -4.6708128726  MEMB      84              0.0000000000
     11182        90  POPC      H15S           11.5099457836       22.8147889543       -6.0035608027  MEMB      84              0.0000000000
     11183        90  POPC      C216           10.2237776053       22.1064048132       -4.4142828382  MEMB      84              0.0000000000
     11184        90  POPC      H16R            9.5970846963       21.4867845632       -5.0907795880  MEMB      84              0.0000000000
     11185        90  POPC      H16S            9.5280051765       22.5275874701       -3.6574301786  MEMB      84              0.0000000000
     11186        90  POPC      C217           11.2777996488       21.1753039194       -3.7955344869  MEMB      84              0.0000000000
     11187        90  POPC      H17R           12.1487904216       21.1573537296       -4.4850080843  MEMB      84              0.0000000000
     11188        90  POPC      H17S           10.9101713670       20.1390911223       -3.9550134179  MEMB      84              0.0000000000
     11189        90  POPC      C218           11.6178566856       21.6565999519       -2.3947147373  MEMB      84              0.0000000000
     11190        90  POPC      H18R           12.1713505610       22.6143351090       -2.4981992512  MEMB      84              0.0000000000
     11191        90  POPC      H18S           12.2260442127       20.9138209334       -1.8355125713  MEMB      84              0.0000000000
     11192        90  POPC      H18T           10.7188086312       21.9686163953       -1.8214103557  MEMB      84              0.0000000000
     11193        90  POPC      C33            12.7792272176       22.9490493230      -11.2027672208  MEMB      84              0.0000000000
     11194        90  POPC      H3X            11.7597873336       23.2557119690      -10.8849291945  MEMB      84              0.0000000000
     11195        90  POPC      H3Y            13.3594663743       23.8917289843      -11.1079028998  MEMB      84              0.0000000000
     11196        90  POPC      C34            13.3646427426       22.0155315471      -10.0427814903  MEMB      84              0.0000000000
     11197        90  POPC      H4X            13.3337826696       22.4255552636       -9.0106728289  MEMB      84              0.0000000000
     11198        90  POPC      H4Y            14.4163833520       21.7544220084      -10.2877005722  MEMB      84              0.0000000000
     11199        90  POPC      C35            12.5448928251       20.7016579344       -9.9758796893  MEMB      84              0.0000000000
     11200        90  POPC      H5X            13.0559898130       20.1269605147       -9.1741168095  MEMB      84              0.0000000000
     11201        90  POPC      H5Y            12.5945949969       20.1495704720      -10.9387135659  MEMB      84              0.0000000000
     11202        90  POPC      C36            11.0858881831       20.9588734038       -9.6308881284  MEMB      84              0.0000000000
     11203        90  POPC      H6X            10.4733622364       21.4964378648      -10.3859757976  MEMB      84              0.0000000000
     11204        90  POPC      H6Y            11.1546167482       21.7343663343       -8.8382919245  MEMB      84              0.0000000000
     11205        90  POPC      C37            10.3645887404       19.7181813125       -9.1909284363  MEMB      84              0.0000000000
     11206        90  POPC      H7X            10.8102854198       19.0155877001       -8.4546965343  MEMB      84              0.0000000000
     11207        90  POPC      H7Y             9.9690751053       19.1639475918      -10.0688323373  MEMB      84              0.0000000000
     11208        90  POPC      C38             9.0906320856       20.1773477342       -8.4300830904  MEMB      84              0.0000000000
     11209        90  POPC      H8X             8.6710769932       21.1152224713       -8.8527951221  MEMB      84              0.0000000000
     11210        90  POPC      H8Y             9.4547598338       20.4832870294       -7.4260243909  MEMB      84              0.0000000000
     11211        90  POPC      C39             8.0577210420       19.0442018474       -8.4044716519  MEMB      84              0.0000000000
     11212        90  POPC      H9X             8.6696372492       18.1951025801       -8.0317648963  MEMB      84              0.0000000000
     11213        90  POPC      H9Y             7.7017524435       18.8320278792       -9.4352915267  MEMB      84              0.0000000000
     11214        90  POPC      C310            6.9208865755       19.3072194305       -7.3819722599  MEMB      84              0.0000000000
     11215        90  POPC      H10X            6.1478724941       18.5291820713       -7.5592531155  MEMB      84              0.0000000000
     11216        90  POPC      H10Y            6.5705782015       20.2972202514       -7.7446067469  MEMB      84              0.0000000000
     11217        90  POPC      C311            7.3633334360       19.3280747079       -5.9351903852  MEMB      84              0.0000000000
     11218        90  POPC      H11X            7.9304750902       20.2637685697       -5.7424513212  MEMB      84              0.0000000000
     11219        90  POPC      H11Y            8.0946688380       18.5139986357       -5.7434888038  MEMB      84              0.0000000000
     11220        90  POPC      C312            6.2258939783       19.1609421365       -4.9628029136  MEMB      84              0.0000000000
     11221        90  POPC      H12X            5.8108983987       18.1399503207       -5.1030698199  MEMB      84              0.0000000000
     11222        90  POPC      H12Y            5.4668754557       19.9249176951       -5.2358477663  MEMB      84              0.0000000000
     11223        90  POPC      C313            6.7260032833       19.4089233444       -3.4719835952  MEMB      84              0.0000000000
     11224        90  POPC      H13X            5.8178170862       19.4234355175       -2.8322113900  MEMB      84              0.0000000000
     11225        90  POPC      H13Y            7.1392790609       20.4385259958       -3.5306546121  MEMB      84              0.0000000000
     11226        90  POPC      C314            7.9486678903       18.5341157074       -3.0341536569  MEMB      84              0.0000000000
     11227        90  POPC      H14X            8.8828953957       18.9642477659       -3.4543037479  MEMB      84              0.0000000000
     11228        90  POPC      H14Y            7.7467740946       17.5084192689       -3.4103275928  MEMB      84              0.0000000000
     11229        90  POPC      C315            8.2138761182       18.5249822945       -1.5396760585  MEMB      84              0.0000000000
     11230        90  POPC      H15X            8.1897238715       19.5335254634       -1.0742961646  MEMB      84              0.0000000000
     11231        90  POPC      H15Y            9.2646032719       18.1698799756       -1.4748981527  MEMB      84              0.0000000000
     11232        90  POPC      C316            7.4659990339       17.6531345700       -0.6386800980  MEMB      84              0.0000000000
     11233        90  POPC      H16X            6.4061339495       17.9796448717       -0.5723588054  MEMB      84              0.0000000000
     11234        90  POPC      H16Y            7.9048736599       17.6457400204        0.3819346310  MEMB      84              0.0000000000
     11235        90  POPC      H16Z            7.4711313183       16.6200639480       -1.0474086435  MEMB      84              0.0000000000
     11236        91  POPC      N               2.1200896781      -23.6872189951      -20.8686725447  MEMB      85              0.0000000000
     11237        91  POPC      C12             3.2217276011      -23.3681670307      -19.8514584087  MEMB      85              0.0000000000
     11238        91  POPC      H12A            3.7407439722      -22.6182173762      -20.4299023973  MEMB      85              0.0000000000
     11239        91  POPC      H12B            3.8918835312      -24.1615080972      -19.5549773575  MEMB      85              0.0000000000
     11240        91  POPC      C13             1.4989734751      -22.4304894358      -21.3273247001  MEMB      85              0.0000000000
     11241        91  POPC      H13A            1.0109385783      -22.4469795792      -22.2906263050  MEMB      85              0.0000000000
     11242        91  POPC      H13B            0.7420452415      -22.1052125965      -20.6290019117  MEMB      85              0.0000000000
     11243        91  POPC      H13C            2.2080885318      -21.6236395240      -21.4393477190  MEMB      85              0.0000000000
     11244        91  POPC      C14             2.8034039275      -24.2645242088      -22.0869395977  MEMB      85              0.0000000000
     11245        91  POPC      H14A            2.0516006356      -24.6872759477      -22.7369185202  MEMB      85              0.0000000000
     11246        91  POPC      H14B            3.2237056291      -23.4254294207      -22.6214170454  MEMB      85              0.0000000000
     11247        91  POPC      H14C            3.4311583949      -25.0297859719      -21.6548531581  MEMB      85              0.0000000000
     11248        91  POPC      C15             1.1037494747      -24.6008791538      -20.2800655632  MEMB      85              0.0000000000
     11249        91  POPC      H15A            0.3789109506      -24.9582006098      -20.9965363504  MEMB      85              0.0000000000
     11250        91  POPC      H15B            0.6929156397      -24.0722312219      -19.4326300395  MEMB      85              0.0000000000
     11251        91  POPC      H15C            1.6202731014      -25.5181857482      -20.0389184480  MEMB      85              0.0000000000
     11252        91  POPC      C11             2.9096880255      -22.6409408369      -18.4224616435  MEMB      85              0.0000000000
     11253        91  POPC      H11A            3.8070911839      -22.0259929240      -18.1970117472  MEMB      85              0.0000000000
     11254        91  POPC      H11B            2.7471618860      -23.4552072362      -17.6843041801  MEMB      85              0.0000000000
     11255        91  POPC      P               1.4030010138      -20.8231285044      -17.2158972834  MEMB      85              0.0000000000
     11256        91  POPC      O13             0.0584642457      -21.3453866362      -16.6773247448  MEMB      85              0.0000000000
     11257        91  POPC      O14             1.4781954565      -19.4013330578      -17.5860378779  MEMB      85              0.0000000000
     11258        91  POPC      O12             1.8407020084      -21.7208237283      -18.4998761360  MEMB      85              0.0000000000
     11259        91  POPC      O11             2.4976533420      -21.1034364163      -16.1839415013  MEMB      85              0.0000000000
     11260        91  POPC      C1              2.6216982953      -20.1449059470      -15.1338049666  MEMB      85              0.0000000000
     11261        91  POPC      HA              1.6319208876      -20.0692133351      -14.6348739298  MEMB      85              0.0000000000
     11262        91  POPC      HB              2.8594672265      -19.1522905854      -15.5725550783  MEMB      85              0.0000000000
     11263        91  POPC      C2              3.7703926972      -20.4602672392      -14.1745494042  MEMB      85              0.0000000000
     11264        91  POPC      HS              4.6215164728      -20.4156516204      -14.8872334967  MEMB      85              0.0000000000
     11265        91  POPC      O21             3.5618572864      -21.7162520958      -13.5808351364  MEMB      85              0.0000000000
     11266        91  POPC      C21             4.4666298666      -22.6505694696      -13.7644542870  MEMB      85              0.0000000000
     11267        91  POPC      O22             5.4495829297      -22.4256093059      -14.4490163407  MEMB      85              0.0000000000
     11268        91  POPC      C22             4.1685153232      -23.9581308440      -12.9851713821  MEMB      85              0.0000000000
     11269        91  POPC      H2R             4.8331592802      -23.7536077652      -12.1187191788  MEMB      85              0.0000000000
     11270        91  POPC      H2S             4.5902329759      -24.7865347590      -13.5936301029  MEMB      85              0.0000000000
     11271        91  POPC      C3              3.9048641856      -19.4408745336      -13.0259082018  MEMB      85              0.0000000000
     11272        91  POPC      HX              3.9950463803      -18.3699728058      -13.3076132787  MEMB      85              0.0000000000
     11273        91  POPC      HY              4.8184327272      -19.7576731347      -12.4787769911  MEMB      85              0.0000000000
     11274        91  POPC      O31             2.8902800033      -19.5393988448      -12.0142305339  MEMB      85              0.0000000000
     11275        91  POPC      C31             3.0125006983      -18.6200563324      -10.9962030699  MEMB      85              0.0000000000
     11276        91  POPC      O32             3.8811747770      -17.7904294589      -10.9225599714  MEMB      85              0.0000000000
     11277        91  POPC      C32             1.9226104843      -18.8230249887       -9.9368530793  MEMB      85              0.0000000000
     11278        91  POPC      H2X             2.0554315025      -19.8212043941       -9.4674735648  MEMB      85              0.0000000000
     11279        91  POPC      H2Y             0.9156477052      -18.6935014178      -10.3880412405  MEMB      85              0.0000000000
     11280        91  POPC      C23             2.6879898590      -24.0992272444      -12.6500227955  MEMB      85              0.0000000000
     11281        91  POPC      H3R             2.5661080382      -25.1898428084      -12.4767487936  MEMB      85              0.0000000000
     11282        91  POPC      H3S             1.9429757653      -23.7799870491      -13.4098652021  MEMB      85              0.0000000000
     11283        91  POPC      C24             2.3056557755      -23.3532068063      -11.3639358444  MEMB      85              0.0000000000
     11284        91  POPC      H4R             2.1249395489      -22.3462280958      -11.7971296321  MEMB      85              0.0000000000
     11285        91  POPC      H4S             3.1328309277      -23.2485048037      -10.6296747636  MEMB      85              0.0000000000
     11286        91  POPC      C25             0.9252311596      -23.8529043385      -10.7290960069  MEMB      85              0.0000000000
     11287        91  POPC      H5R             1.1559125629      -24.8484645597      -10.2932435924  MEMB      85              0.0000000000
     11288        91  POPC      H5S             0.2053881752      -24.0298087623      -11.5566538784  MEMB      85              0.0000000000
     11289        91  POPC      C26             0.3652638914      -22.8526902964       -9.6969450162  MEMB      85              0.0000000000
     11290        91  POPC      H6R            -0.2777938173      -22.1180713476      -10.2271642592  MEMB      85              0.0000000000
     11291        91  POPC      H6S             1.2527022778      -22.4592192783       -9.1566168516  MEMB      85              0.0000000000
     11292        91  POPC      C27            -0.6520642570      -23.4374103895       -8.5881758833  MEMB      85              0.0000000000
     11293        91  POPC      H7R            -0.2812841910      -24.3884680440       -8.1496189116  MEMB      85              0.0000000000
     11294        91  POPC      H7S            -1.5713484386      -23.6450351425       -9.1765041702  MEMB      85              0.0000000000
     11295        91  POPC      C28            -0.8601653716      -22.4444421419       -7.4076479014  MEMB      85              0.0000000000
     11296        91  POPC      H8R            -1.1531390923      -21.4527498655       -7.8138908636  MEMB      85              0.0000000000
     11297        91  POPC      H8S             0.1627695089      -22.2845766822       -7.0046989345  MEMB      85              0.0000000000
     11298        91  POPC      C29            -1.7570125443      -22.9342480033       -6.3133835211  MEMB      85              0.0000000000
     11299        91  POPC      H91            -2.7676741832      -23.1929729336       -6.6621306546  MEMB      85              0.0000000000
     11300        91  POPC      C210           -1.4995405912      -22.9950904281       -5.0332643768  MEMB      85              0.0000000000
     11301        91  POPC      H101           -2.3076013541      -23.2573705648       -4.3345172699  MEMB      85              0.0000000000
     11302        91  POPC      C211           -0.1037202772      -22.5537358058       -4.4255420714  MEMB      85              0.0000000000
     11303        91  POPC      H11R           -0.1789657387      -22.4955291289       -3.3186222312  MEMB      85              0.0000000000
     11304        91  POPC      H11S            0.1670298166      -21.5209406912       -4.7327056797  MEMB      85              0.0000000000
     11305        91  POPC      C212            1.0577106214      -23.4641603555       -4.8014105063  MEMB      85              0.0000000000
     11306        91  POPC      H12R            1.9302852190      -22.8142523036       -4.5765684382  MEMB      85              0.0000000000
     11307        91  POPC      H12S            1.0683662135      -23.7750572082       -5.8679711813  MEMB      85              0.0000000000
     11308        91  POPC      C213            1.3332229092      -24.7670076545       -3.9872046128  MEMB      85              0.0000000000
     11309        91  POPC      H13R            2.3674038962      -25.1403949614       -4.1464922226  MEMB      85              0.0000000000
     11310        91  POPC      H13S            0.6108572185      -25.5665928561       -4.2577080174  MEMB      85              0.0000000000
     11311        91  POPC      C214            1.1892091641      -24.6166202945       -2.4758936668  MEMB      85              0.0000000000
     11312        91  POPC      H14R            0.1233335801      -24.5091739103       -2.1814690159  MEMB      85              0.0000000000
     11313        91  POPC      H14S            1.7596685920      -23.6818386118       -2.2885969200  MEMB      85              0.0000000000
     11314        91  POPC      C215            1.9067174555      -25.5777844531       -1.6468147573  MEMB      85              0.0000000000
     11315        91  POPC      H15R            2.9763986306      -25.4577271286       -1.9219323167  MEMB      85              0.0000000000
     11316        91  POPC      H15S            1.6074683246      -26.5422091344       -2.1101247692  MEMB      85              0.0000000000
     11317        91  POPC      C216            1.6687989657      -25.5737665043       -0.1143039471  MEMB      85              0.0000000000
     11318        91  POPC      H16R            0.5792094795      -25.4503648741        0.0642680161  MEMB      85              0.0000000000
     11319        91  POPC      H16S            2.1003882660      -24.6934687524        0.4083120086  MEMB      85              0.0000000000
     11320        91  POPC      C217            2.3136593853      -26.7559967434        0.6158856346  MEMB      85              0.0000000000
     11321        91  POPC      H17R            3.4025950240      -26.6985578063        0.4031865981  MEMB      85              0.0000000000
     11322        91  POPC      H17S            1.9436147301      -27.6734656500        0.1102798513  MEMB      85              0.0000000000
     11323        91  POPC      C218            2.1601539995      -26.7398580463        2.1339081049  MEMB      85              0.0000000000
     11324        91  POPC      H18R            2.4911359009      -25.7469534267        2.5066180306  MEMB      85              0.0000000000
     11325        91  POPC      H18S            2.8600023396      -27.3889792629        2.7023931479  MEMB      85              0.0000000000
     11326        91  POPC      H18T            1.1089575990      -26.9003466299        2.4556996398  MEMB      85              0.0000000000
     11327        91  POPC      C33             2.1841407626      -17.7567002316       -8.8454062955  MEMB      85              0.0000000000
     11328        91  POPC      H3X             2.0213998605      -16.7061959985       -9.1683255178  MEMB      85              0.0000000000
     11329        91  POPC      H3Y             3.1159425478      -17.8859658337       -8.2543416407  MEMB      85              0.0000000000
     11330        91  POPC      C34             1.0994737933      -17.9067311690       -7.6764967491  MEMB      85              0.0000000000
     11331        91  POPC      H4X             1.0969131706      -18.9938327636       -7.4473152116  MEMB      85              0.0000000000
     11332        91  POPC      H4Y             0.1155520749      -17.6867144546       -8.1432007341  MEMB      85              0.0000000000
     11333        91  POPC      C35             1.3106977162      -17.0312733246       -6.4163360840  MEMB      85              0.0000000000
     11334        91  POPC      H5X             1.3358781067      -15.9534913374       -6.6847989784  MEMB      85              0.0000000000
     11335        91  POPC      H5Y             2.3326778050      -17.2848927341       -6.0619993800  MEMB      85              0.0000000000
     11336        91  POPC      C36             0.2734392796      -17.2041500436       -5.3481921514  MEMB      85              0.0000000000
     11337        91  POPC      H6X            -0.6624296600      -16.8418251532       -5.8248377525  MEMB      85              0.0000000000
     11338        91  POPC      H6Y             0.5681370614      -16.6032352192       -4.4614143672  MEMB      85              0.0000000000
     11339        91  POPC      C37             0.1009086396      -18.6408992353       -4.8737931604  MEMB      85              0.0000000000
     11340        91  POPC      H7X             1.0181884305      -19.2003446415       -4.5910574625  MEMB      85              0.0000000000
     11341        91  POPC      H7Y            -0.4354613611      -19.1275630218       -5.7162819645  MEMB      85              0.0000000000
     11342        91  POPC      C38            -0.9422970514      -18.7303136238       -3.7379977472  MEMB      85              0.0000000000
     11343        91  POPC      H8X            -1.1329209400      -19.8106024433       -3.5620440777  MEMB      85              0.0000000000
     11344        91  POPC      H8Y            -1.9683107398      -18.4203197493       -4.0304364069  MEMB      85              0.0000000000
     11345        91  POPC      C39            -0.6737530982      -18.0163236340       -2.3556551548  MEMB      85              0.0000000000
     11346        91  POPC      H9X            -1.5254242190      -18.3629405284       -1.7320904592  MEMB      85              0.0000000000
     11347        91  POPC      H9Y            -0.8191205218      -16.9283600141       -2.5274820679  MEMB      85              0.0000000000
     11348        91  POPC      C310            0.5533293059      -18.4963793639       -1.5294171096  MEMB      85              0.0000000000
     11349        91  POPC      H10X            0.4105280880      -18.0967183313       -0.5026739538  MEMB      85              0.0000000000
     11350        91  POPC      H10Y            1.5364899171      -18.2234337723       -1.9689807840  MEMB      85              0.0000000000
     11351        91  POPC      C311            0.4484116149      -20.0101418383       -1.4079303263  MEMB      85              0.0000000000
     11352        91  POPC      H11X            0.6477849039      -20.5237312814       -2.3727081095  MEMB      85              0.0000000000
     11353        91  POPC      H11Y           -0.5840265924      -20.3167118015       -1.1351541137  MEMB      85              0.0000000000
     11354        91  POPC      C312            1.4218800860      -20.6440422772       -0.4247161595  MEMB      85              0.0000000000
     11355        91  POPC      H12X            1.1491473576      -21.6878929003       -0.1595496665  MEMB      85              0.0000000000
     11356        91  POPC      H12Y            1.3289206649      -20.0963684788        0.5374332022  MEMB      85              0.0000000000
     11357        91  POPC      C313            2.8997339766      -20.4472015323       -0.8398453951  MEMB      85              0.0000000000
     11358        91  POPC      H13X            3.5166748187      -20.6961265544        0.0499535213  MEMB      85              0.0000000000
     11359        91  POPC      H13Y            3.0133329211      -19.3423028873       -0.8646466450  MEMB      85              0.0000000000
     11360        91  POPC      C314            3.4718953888      -21.2631239238       -2.0293384596  MEMB      85              0.0000000000
     11361        91  POPC      H14X            2.6675153683      -21.5598945131       -2.7358940953  MEMB      85              0.0000000000
     11362        91  POPC      H14Y            3.9846773224      -22.1307740138       -1.5618349305  MEMB      85              0.0000000000
     11363        91  POPC      C315            4.6142727703      -20.5316538234       -2.8056095496  MEMB      85              0.0000000000
     11364        91  POPC      H15X            4.1197262253      -19.6996338671       -3.3510332941  MEMB      85              0.0000000000
     11365        91  POPC      H15Y            4.9772985701      -21.2158386919       -3.6021170018  MEMB      85              0.0000000000
     11366        91  POPC      C316            5.8223346207      -20.2019772592       -1.9569095534  MEMB      85              0.0000000000
     11367        91  POPC      H16X            5.4726508618      -19.8375434534       -0.9673499284  MEMB      85              0.0000000000
     11368        91  POPC      H16Y            6.3505894241      -19.3795226696       -2.4849594333  MEMB      85              0.0000000000
     11369        91  POPC      H16Z            6.4228747892      -21.1248206647       -1.8084765602  MEMB      85              0.0000000000
     11370        92  POPS      N              21.3020799580        2.8439863860      -21.6033789756  MEMB      86              0.0000000000
     11371        92  POPS      HN1            21.5670934984        1.9876809049      -22.1307391553  MEMB      86              0.0000000000
     11372        92  POPS      HN2            20.4841367211        3.1913905082      -22.1436373917  MEMB      86              0.0000000000
     11373        92  POPS      HN3            22.1452062470        3.4516463927      -21.6419462139  MEMB      86              0.0000000000
     11374        92  POPS      C12            20.7983649026        2.3996073341      -20.2739364358  MEMB      86              0.0000000000
     11375        92  POPS      H12A           20.5252217020        1.3575266420      -20.3504912374  MEMB      86              0.0000000000
     11376        92  POPS      C13            19.3986749983        3.0546157235      -19.8770654604  MEMB      86              0.0000000000
     11377        92  POPS      O13A           18.7434474039        3.6325114512      -20.7402024131  MEMB      86              0.0000000000
     11378        92  POPS      O13B           19.0357302404        2.8717850438      -18.6374281363  MEMB      86              0.0000000000
     11379        92  POPS      C11            21.9316627298        2.6960354993      -19.1921968680  MEMB      86              0.0000000000
     11380        92  POPS      H11A           21.8588430687        3.7982490015      -19.0732698362  MEMB      86              0.0000000000
     11381        92  POPS      H11B           22.9544435547        2.5575068296      -19.6033538774  MEMB      86              0.0000000000
     11382        92  POPS      P              22.1064697743        0.5066262015      -17.8079061353  MEMB      86              0.0000000000
     11383        92  POPS      O13            22.5350246099       -0.0898498956      -19.1125611742  MEMB      86              0.0000000000
     11384        92  POPS      O14            21.0613705719       -0.1923511722      -17.0403284857  MEMB      86              0.0000000000
     11385        92  POPS      O12            21.6468382457        2.0888288173      -17.9402949887  MEMB      86              0.0000000000
     11386        92  POPS      O11            23.2954765652        0.6795214968      -16.7747009695  MEMB      86              0.0000000000
     11387        92  POPS      C1             24.6530538122        0.4913327670      -17.1409838711  MEMB      86              0.0000000000
     11388        92  POPS      HA             24.9140103794        1.1370810658      -18.0065655379  MEMB      86              0.0000000000
     11389        92  POPS      HB             24.7349995377       -0.5796746632      -17.4247949840  MEMB      86              0.0000000000
     11390        92  POPS      C2             25.5350019537        0.9544548360      -15.9829510863  MEMB      86              0.0000000000
     11391        92  POPS      HS             26.5173957023        0.4440269332      -16.0761516585  MEMB      86              0.0000000000
     11392        92  POPS      O21            24.9184553945        0.6849554787      -14.6838601838  MEMB      86              0.0000000000
     11393        92  POPS      C21            24.3322923671       -0.5230876040      -14.4888583398  MEMB      86              0.0000000000
     11394        92  POPS      O22            24.4760482340       -1.4861115246      -15.2342316933  MEMB      86              0.0000000000
     11395        92  POPS      C22            23.6536196180       -0.6159236857      -13.1539164286  MEMB      86              0.0000000000
     11396        92  POPS      H2R            22.8057675967        0.0927806105      -13.2688343316  MEMB      86              0.0000000000
     11397        92  POPS      H2S            24.3173578831       -0.2481038554      -12.3424479398  MEMB      86              0.0000000000
     11398        92  POPS      C3             25.7957136705        2.4859192460      -15.9622052491  MEMB      86              0.0000000000
     11399        92  POPS      HX             26.4464102737        2.6967314657      -16.8376896542  MEMB      86              0.0000000000
     11400        92  POPS      HY             26.5419309932        2.6915784852      -15.1652205695  MEMB      86              0.0000000000
     11401        92  POPS      O31            24.6571878493        3.2891469952      -16.0322469217  MEMB      86              0.0000000000
     11402        92  POPS      C31            24.1602220439        3.8175679893      -14.9466251164  MEMB      86              0.0000000000
     11403        92  POPS      O32            24.4229634880        3.5065749439      -13.8131457442  MEMB      86              0.0000000000
     11404        92  POPS      C32            23.0579778984        4.9560908000      -15.2452616831  MEMB      86              0.0000000000
     11405        92  POPS      H2X            22.2779761978        4.5752979822      -15.9387418646  MEMB      86              0.0000000000
     11406        92  POPS      H2Y            23.5794687110        5.7602115781      -15.8071850524  MEMB      86              0.0000000000
     11407        92  POPS      C23            23.1366030446       -2.0664275260      -12.8279478289  MEMB      86              0.0000000000
     11408        92  POPS      H3R            24.0472643565       -2.7004684778      -12.7730901330  MEMB      86              0.0000000000
     11409        92  POPS      H3S            22.5083623164       -2.4687006362      -13.6512404097  MEMB      86              0.0000000000
     11410        92  POPS      C24            22.5339114873       -2.2644278539      -11.3955934907  MEMB      86              0.0000000000
     11411        92  POPS      H4R            22.1765071956       -3.3163598802      -11.3908580861  MEMB      86              0.0000000000
     11412        92  POPS      H4S            21.7247414531       -1.5082246036      -11.3077222648  MEMB      86              0.0000000000
     11413        92  POPS      C25            23.5118454388       -2.1653306461      -10.2589718451  MEMB      86              0.0000000000
     11414        92  POPS      H5R            24.2851063035       -1.3677934343      -10.2769456213  MEMB      86              0.0000000000
     11415        92  POPS      H5S            23.9812715477       -3.1666449533      -10.1525342143  MEMB      86              0.0000000000
     11416        92  POPS      C26            22.8056141093       -1.9284879048       -8.9223466936  MEMB      86              0.0000000000
     11417        92  POPS      H6R            23.6116554685       -1.9961604002       -8.1607433079  MEMB      86              0.0000000000
     11418        92  POPS      H6S            22.0897979488       -2.7672014538       -8.7863761757  MEMB      86              0.0000000000
     11419        92  POPS      C27            22.1255952801       -0.5210503387       -8.7211143923  MEMB      86              0.0000000000
     11420        92  POPS      H7R            21.6155523100       -0.1955347958       -9.6528955382  MEMB      86              0.0000000000
     11421        92  POPS      H7S            22.9469170294        0.2095315105       -8.5598636677  MEMB      86              0.0000000000
     11422        92  POPS      C28            21.0718967031       -0.4164521381       -7.6128264237  MEMB      86              0.0000000000
     11423        92  POPS      H8R            20.7997884130        0.6566072872       -7.5189038133  MEMB      86              0.0000000000
     11424        92  POPS      H8S            21.4898754672       -0.7327083376       -6.6332359501  MEMB      86              0.0000000000
     11425        92  POPS      C29            19.7703278417       -1.1543139515       -7.8247923535  MEMB      86              0.0000000000
     11426        92  POPS      H91            19.9270219559       -2.2023978151       -7.5298903747  MEMB      86              0.0000000000
     11427        92  POPS      C210           18.6202973101       -0.8100715002       -8.3308148223  MEMB      86              0.0000000000
     11428        92  POPS      H101           17.8455507445       -1.5850557974       -8.4265619249  MEMB      86              0.0000000000
     11429        92  POPS      C211           18.2896173356        0.5674755070       -8.8966357944  MEMB      86              0.0000000000
     11430        92  POPS      H11R           17.8997483609        0.3440738365       -9.9127138566  MEMB      86              0.0000000000
     11431        92  POPS      H11S           19.1872307212        1.2075366578       -9.0342319578  MEMB      86              0.0000000000
     11432        92  POPS      C212           17.3200176678        1.3923395556       -8.0694216671  MEMB      86              0.0000000000
     11433        92  POPS      H12R           16.3563224923        0.8513531100       -7.9556410702  MEMB      86              0.0000000000
     11434        92  POPS      H12S           17.1463847288        2.2434159596       -8.7621282563  MEMB      86              0.0000000000
     11435        92  POPS      C213           17.9547116639        1.8831089728       -6.8154815650  MEMB      86              0.0000000000
     11436        92  POPS      H13R           18.7137933339        2.5847489263       -7.2226890539  MEMB      86              0.0000000000
     11437        92  POPS      H13S           18.3725380617        0.9922735526       -6.2995803672  MEMB      86              0.0000000000
     11438        92  POPS      C214           17.0789361513        2.7796487739       -5.8842956149  MEMB      86              0.0000000000
     11439        92  POPS      H14R           16.3971708136        2.1426961866       -5.2811304433  MEMB      86              0.0000000000
     11440        92  POPS      H14S           16.4112350701        3.3807370688       -6.5378920817  MEMB      86              0.0000000000
     11441        92  POPS      C215           17.9152662539        3.5818875903       -4.8054191276  MEMB      86              0.0000000000
     11442        92  POPS      H15R           17.2953615773        4.3478128352       -4.2921963205  MEMB      86              0.0000000000
     11443        92  POPS      H15S           18.5781930297        4.1876649219       -5.4595465481  MEMB      86              0.0000000000
     11444        92  POPS      C216           18.6577062911        2.7333042395       -3.7379647256  MEMB      86              0.0000000000
     11445        92  POPS      H16R           19.5250743815        2.1269154627       -4.0760276157  MEMB      86              0.0000000000
     11446        92  POPS      H16S           17.8835147580        2.1061470851       -3.2464135628  MEMB      86              0.0000000000
     11447        92  POPS      C217           19.1737948399        3.4642758337       -2.4769490956  MEMB      86              0.0000000000
     11448        92  POPS      H17R           19.6018164516        2.7371717306       -1.7541511065  MEMB      86              0.0000000000
     11449        92  POPS      H17S           18.3129871016        3.8887893683       -1.9173793611  MEMB      86              0.0000000000
     11450        92  POPS      C218           20.1264292505        4.6646919708       -2.7606234011  MEMB      86              0.0000000000
     11451        92  POPS      H18R           19.4900005092        5.3630167676       -3.3451086462  MEMB      86              0.0000000000
     11452        92  POPS      H18S           21.0220037710        4.4101544432       -3.3668234001  MEMB      86              0.0000000000
     11453        92  POPS      H18T           20.3828632745        5.1710673657       -1.8055598743  MEMB      86              0.0000000000
     11454        92  POPS      C33            22.4655098080        5.5141438516      -14.0024203380  MEMB      86              0.0000000000
     11455        92  POPS      H3X            22.1901750687        6.5855752513      -14.1051146707  MEMB      86              0.0000000000
     11456        92  POPS      H3Y            23.2021093179        5.5474396661      -13.1713768045  MEMB      86              0.0000000000
     11457        92  POPS      C34            21.2314963931        4.7107350083      -13.6348083070  MEMB      86              0.0000000000
     11458        92  POPS      H4X            21.4260351821        3.6297546459      -13.4676037329  MEMB      86              0.0000000000
     11459        92  POPS      H4Y            20.4729615943        4.7878577153      -14.4428913824  MEMB      86              0.0000000000
     11460        92  POPS      C35            20.5631547592        5.2883253291      -12.4348517432  MEMB      86              0.0000000000
     11461        92  POPS      H5X            19.6509979239        4.7121422356      -12.1697025772  MEMB      86              0.0000000000
     11462        92  POPS      H5Y            20.2121199310        6.3341400132      -12.5666356994  MEMB      86              0.0000000000
     11463        92  POPS      C36            21.3224277198        5.2180944497      -11.1177947083  MEMB      86              0.0000000000
     11464        92  POPS      H6X            22.2616355038        5.7974062832      -11.2466656782  MEMB      86              0.0000000000
     11465        92  POPS      H6Y            21.7442281957        4.2121559461      -10.9068610355  MEMB      86              0.0000000000
     11466        92  POPS      C37            20.5366706374        5.7301664114       -9.9250184498  MEMB      86              0.0000000000
     11467        92  POPS      H7X            19.5606058338        5.2068627214       -9.8368600152  MEMB      86              0.0000000000
     11468        92  POPS      H7Y            20.1702408217        6.7627257868      -10.1090608714  MEMB      86              0.0000000000
     11469        92  POPS      C38            21.3753830263        5.5646065620       -8.6305550177  MEMB      86              0.0000000000
     11470        92  POPS      H8X            20.7838560132        5.9533886943       -7.7742457787  MEMB      86              0.0000000000
     11471        92  POPS      H8Y            22.2566050539        6.2390327771       -8.5765371866  MEMB      86              0.0000000000
     11472        92  POPS      C39            21.7908800971        4.1838929068       -8.2080663035  MEMB      86              0.0000000000
     11473        92  POPS      H9X            22.4362056675        3.6272440988       -8.9208199304  MEMB      86              0.0000000000
     11474        92  POPS      H9Y            20.9164214951        3.4998888305       -8.2502727970  MEMB      86              0.0000000000
     11475        92  POPS      C310           22.4755224953        4.0920419957       -6.8471717827  MEMB      86              0.0000000000
     11476        92  POPS      H10X           21.9059861282        4.7247088281       -6.1332514537  MEMB      86              0.0000000000
     11477        92  POPS      H10Y           23.4538061911        4.6179994279       -6.8216602620  MEMB      86              0.0000000000
     11478        92  POPS      C311           22.5456306869        2.6240105709       -6.3132899903  MEMB      86              0.0000000000
     11479        92  POPS      H11X           22.9061873257        1.9588341372       -7.1268380377  MEMB      86              0.0000000000
     11480        92  POPS      H11Y           21.5705255582        2.2238075834       -5.9621082967  MEMB      86              0.0000000000
     11481        92  POPS      C312           23.5350086768        2.6801780737       -5.1667274680  MEMB      86              0.0000000000
     11482        92  POPS      H12X           23.2466750426        3.3597159116       -4.3364188018  MEMB      86              0.0000000000
     11483        92  POPS      H12Y           24.4935328645        3.0958114148       -5.5446186367  MEMB      86              0.0000000000
     11484        92  POPS      C313           23.8944244532        1.3377516997       -4.5454695097  MEMB      86              0.0000000000
     11485        92  POPS      H13X           24.4125593681        0.7688674603       -5.3468608105  MEMB      86              0.0000000000
     11486        92  POPS      H13Y           22.9152010110        0.9170272957       -4.2317281012  MEMB      86              0.0000000000
     11487        92  POPS      C314           24.7806410492        1.3042060973       -3.2601278067  MEMB      86              0.0000000000
     11488        92  POPS      H14X           25.6151633808        1.9321570142       -3.6390361886  MEMB      86              0.0000000000
     11489        92  POPS      H14Y           25.2661724334        0.3116411304       -3.1443890324  MEMB      86              0.0000000000
     11490        92  POPS      C315           24.3278127108        1.9064762735       -1.9728382284  MEMB      86              0.0000000000
     11491        92  POPS      H15X           23.5729736889        2.6874542987       -2.2065298183  MEMB      86              0.0000000000
     11492        92  POPS      H15Y           25.1870464022        2.4680307667       -1.5477563538  MEMB      86              0.0000000000
     11493        92  POPS      C316           23.8776208371        1.0244227162       -0.8805142271  MEMB      86              0.0000000000
     11494        92  POPS      H16X           24.6398467077        0.2897115809       -0.5435691942  MEMB      86              0.0000000000
     11495        92  POPS      H16Y           23.1305848927        0.2877550098       -1.2459993794  MEMB      86              0.0000000000
     11496        92  POPS      H16Z           23.4223052900        1.5933144094       -0.0418434503  MEMB      86              0.0000000000
     11497        93  POPC      N              19.8365030080       -6.6416885077      -21.2044458395  MEMB      87              0.0000000000
     11498        93  POPC      C12            20.2304934620       -7.9356285566      -20.5531592838  MEMB      87              0.0000000000
     11499        93  POPC      H12A           21.2115314376       -8.1701253356      -20.9391331191  MEMB      87              0.0000000000
     11500        93  POPC      H12B           19.5651649303       -8.7269326601      -20.8655304726  MEMB      87              0.0000000000
     11501        93  POPC      C13            20.4539347985       -5.4540684960      -20.5393678375  MEMB      87              0.0000000000
     11502        93  POPC      H13A           21.5305156292       -5.3734643597      -20.5097593261  MEMB      87              0.0000000000
     11503        93  POPC      H13B           19.9496326046       -4.5730434378      -20.9079789167  MEMB      87              0.0000000000
     11504        93  POPC      H13C           20.1345043501       -5.3856145327      -19.5099610781  MEMB      87              0.0000000000
     11505        93  POPC      C14            20.2807778529       -6.6174130865      -22.6734578729  MEMB      87              0.0000000000
     11506        93  POPC      H14A           21.3545551804       -6.5041620904      -22.6974644035  MEMB      87              0.0000000000
     11507        93  POPC      H14B           19.9833903637       -7.5621547340      -23.1040667048  MEMB      87              0.0000000000
     11508        93  POPC      H14C           19.7003880940       -5.8752857850      -23.2014679102  MEMB      87              0.0000000000
     11509        93  POPC      C15            18.3271499375       -6.5403524054      -21.2142956484  MEMB      87              0.0000000000
     11510        93  POPC      H15A           18.0273527847       -5.5721498450      -21.5872640330  MEMB      87              0.0000000000
     11511        93  POPC      H15B           17.8912163126       -6.6886841864      -20.2373823999  MEMB      87              0.0000000000
     11512        93  POPC      H15C           17.9424316610       -7.3002596250      -21.8783234053  MEMB      87              0.0000000000
     11513        93  POPC      C11            20.1799041106       -8.0217940983      -19.0091670920  MEMB      87              0.0000000000
     11514        93  POPC      H11A           21.2125690710       -8.1049015240      -18.6078976816  MEMB      87              0.0000000000
     11515        93  POPC      H11B           19.7507513218       -9.0364713751      -18.8657141556  MEMB      87              0.0000000000
     11516        93  POPC      P              19.4143134370       -7.0138166961      -16.6909573221  MEMB      87              0.0000000000
     11517        93  POPC      O13            20.4529225776       -5.9645440196      -16.4390898390  MEMB      87              0.0000000000
     11518        93  POPC      O14            19.7350818024       -8.4479703061      -16.2710583292  MEMB      87              0.0000000000
     11519        93  POPC      O12            19.2717366764       -7.0964438754      -18.2742983633  MEMB      87              0.0000000000
     11520        93  POPC      O11            18.0614039658       -6.6412682458      -16.1307025735  MEMB      87              0.0000000000
     11521        93  POPC      C1             16.9718935579       -6.7124207291      -17.0391953895  MEMB      87              0.0000000000
     11522        93  POPC      HA             16.9816606572       -7.5197058827      -17.8024230112  MEMB      87              0.0000000000
     11523        93  POPC      HB             16.8074169240       -5.8349356315      -17.7004733074  MEMB      87              0.0000000000
     11524        93  POPC      C2             15.6344902852       -6.8010551691      -16.2484221843  MEMB      87              0.0000000000
     11525        93  POPC      HS             14.7337780217       -6.5368793842      -16.8427706277  MEMB      87              0.0000000000
     11526        93  POPC      O21            15.7557309601       -5.8150120031      -15.1705330820  MEMB      87              0.0000000000
     11527        93  POPC      C21            14.6882031438       -5.4500483407      -14.4826929069  MEMB      87              0.0000000000
     11528        93  POPC      O22            13.6605957661       -6.0889227549      -14.4214917592  MEMB      87              0.0000000000
     11529        93  POPC      C22            14.8998320877       -4.1877908158      -13.6032418544  MEMB      87              0.0000000000
     11530        93  POPC      H2R            13.9609760832       -3.6071334458      -13.7285723383  MEMB      87              0.0000000000
     11531        93  POPC      H2S            15.7066838958       -3.5000286119      -13.9353474265  MEMB      87              0.0000000000
     11532        93  POPC      C3             15.4438598224       -8.1753621668      -15.6094016798  MEMB      87              0.0000000000
     11533        93  POPC      HX             15.4340544256       -8.9457943896      -16.4098134304  MEMB      87              0.0000000000
     11534        93  POPC      HY             14.5127404511       -8.2684258279      -15.0105055971  MEMB      87              0.0000000000
     11535        93  POPC      O31            16.5826832752       -8.4485689494      -14.7584829727  MEMB      87              0.0000000000
     11536        93  POPC      C31            16.4593840997       -9.5962766654      -14.0643131864  MEMB      87              0.0000000000
     11537        93  POPC      O32            15.6664133160      -10.5100425981      -14.3202970478  MEMB      87              0.0000000000
     11538        93  POPC      C32            17.5707147567       -9.5858115455      -12.9815845577  MEMB      87              0.0000000000
     11539        93  POPC      H2X            18.0520804813       -8.5990737403      -12.8114182045  MEMB      87              0.0000000000
     11540        93  POPC      H2Y            18.4169695720      -10.2591543489      -13.2361096532  MEMB      87              0.0000000000
     11541        93  POPC      C23            15.2077705292       -4.5630785981      -12.2036084222  MEMB      87              0.0000000000
     11542        93  POPC      H3R            14.5041195420       -5.2805652424      -11.7298895418  MEMB      87              0.0000000000
     11543        93  POPC      H3S            15.1472514706       -3.6589456872      -11.5608005196  MEMB      87              0.0000000000
     11544        93  POPC      C24            16.6875176056       -5.2040658752      -12.0856539797  MEMB      87              0.0000000000
     11545        93  POPC      H4R            17.0763099471       -5.5977708710      -13.0490635519  MEMB      87              0.0000000000
     11546        93  POPC      H4S            16.6593542150       -6.0691241285      -11.3890896316  MEMB      87              0.0000000000
     11547        93  POPC      C25            17.8241392720       -4.2658523754      -11.5669305994  MEMB      87              0.0000000000
     11548        93  POPC      H5R            17.6051115740       -3.5669911447      -10.7315017285  MEMB      87              0.0000000000
     11549        93  POPC      H5S            17.9477983785       -3.6676906235      -12.4949567283  MEMB      87              0.0000000000
     11550        93  POPC      C26            19.1987279658       -4.9315063008      -11.5377933343  MEMB      87              0.0000000000
     11551        93  POPC      H6R            18.9588848792       -5.8682104550      -10.9906355580  MEMB      87              0.0000000000
     11552        93  POPC      H6S            20.0123901096       -4.3288632713      -11.0805227313  MEMB      87              0.0000000000
     11553        93  POPC      C27            19.7069320214       -5.4141537411      -12.9695248290  MEMB      87              0.0000000000
     11554        93  POPC      H7R            19.8120903657       -4.5776592836      -13.6930848770  MEMB      87              0.0000000000
     11555        93  POPC      H7S            19.0228673666       -6.1754285729      -13.4017714983  MEMB      87              0.0000000000
     11556        93  POPC      C28            21.0979841510       -6.0891503730      -12.8170683128  MEMB      87              0.0000000000
     11557        93  POPC      H8R            21.7305739868       -5.3753591033      -12.2472850504  MEMB      87              0.0000000000
     11558        93  POPC      H8S            21.5438182645       -6.3573090932      -13.7987218367  MEMB      87              0.0000000000
     11559        93  POPC      C29            20.9653552880       -7.3664429855      -12.0374443602  MEMB      87              0.0000000000
     11560        93  POPC      H91            20.2733231649       -8.0865339160      -12.4984872795  MEMB      87              0.0000000000
     11561        93  POPC      C210           21.4666853815       -7.6575206319      -10.7921622195  MEMB      87              0.0000000000
     11562        93  POPC      H101           21.2207378897       -8.6480200759      -10.3817709720  MEMB      87              0.0000000000
     11563        93  POPC      C211           22.2231161801       -6.7162956595       -9.8427795575  MEMB      87              0.0000000000
     11564        93  POPC      H11R           22.8016340049       -5.9678300060      -10.4253913771  MEMB      87              0.0000000000
     11565        93  POPC      H11S           22.9840974877       -7.3054149905       -9.2876519583  MEMB      87              0.0000000000
     11566        93  POPC      C212           21.3869408403       -5.9860071927       -8.7664611161  MEMB      87              0.0000000000
     11567        93  POPC      H12R           20.6220978932       -6.7199288367       -8.4337527420  MEMB      87              0.0000000000
     11568        93  POPC      H12S           20.8052193636       -5.1527383900       -9.2154429021  MEMB      87              0.0000000000
     11569        93  POPC      C213           22.2956894662       -5.6959153913       -7.5905156504  MEMB      87              0.0000000000
     11570        93  POPC      H13R           23.0398527615       -4.9226973037       -7.8780492498  MEMB      87              0.0000000000
     11571        93  POPC      H13S           22.9878426074       -6.5542598508       -7.4545382591  MEMB      87              0.0000000000
     11572        93  POPC      C214           21.7084593022       -5.3757952283       -6.1578880669  MEMB      87              0.0000000000
     11573        93  POPC      H14R           20.9585045132       -4.5564451918       -6.1814375259  MEMB      87              0.0000000000
     11574        93  POPC      H14S           22.5503661300       -5.1895216804       -5.4573049531  MEMB      87              0.0000000000
     11575        93  POPC      C215           21.0651908876       -6.5882842752       -5.4674217121  MEMB      87              0.0000000000
     11576        93  POPC      H15R           21.8098321826       -7.3179105680       -5.0833963042  MEMB      87              0.0000000000
     11577        93  POPC      H15S           20.3882608411       -6.9681410335       -6.2622770840  MEMB      87              0.0000000000
     11578        93  POPC      C216           20.2058475546       -6.2052075133       -4.2764469957  MEMB      87              0.0000000000
     11579        93  POPC      H16R           19.5134580106       -7.0553338991       -4.0969943189  MEMB      87              0.0000000000
     11580        93  POPC      H16S           19.8470443213       -5.1785919753       -4.5036950536  MEMB      87              0.0000000000
     11581        93  POPC      C217           21.0080946474       -6.1350416877       -2.8974763519  MEMB      87              0.0000000000
     11582        93  POPC      H17R           21.8829546084       -5.4642333823       -3.0351597196  MEMB      87              0.0000000000
     11583        93  POPC      H17S           21.3572692375       -7.1565084957       -2.6347908325  MEMB      87              0.0000000000
     11584        93  POPC      C218           20.1837964448       -5.5920835892       -1.7176462692  MEMB      87              0.0000000000
     11585        93  POPC      H18R           19.5384035758       -6.4100289015       -1.3319609614  MEMB      87              0.0000000000
     11586        93  POPC      H18S           19.5225082328       -4.7741918956       -2.0755187807  MEMB      87              0.0000000000
     11587        93  POPC      H18T           20.8743187855       -5.2112494180       -0.9350459344  MEMB      87              0.0000000000
     11588        93  POPC      C33            16.9182961766      -10.0016825362      -11.6915901539  MEMB      87              0.0000000000
     11589        93  POPC      H3X            16.6776041936      -11.0856818578      -11.7281093175  MEMB      87              0.0000000000
     11590        93  POPC      H3Y            15.9915762636       -9.4150475336      -11.5144725036  MEMB      87              0.0000000000
     11591        93  POPC      C34            17.9147853433       -9.7219243653      -10.4715876217  MEMB      87              0.0000000000
     11592        93  POPC      H4X            18.9777312747       -9.7211913753      -10.7948005347  MEMB      87              0.0000000000
     11593        93  POPC      H4Y            17.6381267642      -10.6073351035       -9.8601725278  MEMB      87              0.0000000000
     11594        93  POPC      C35            17.4165488283       -8.4707591922       -9.7070231744  MEMB      87              0.0000000000
     11595        93  POPC      H5X            16.3082982884       -8.5141099067       -9.6420407263  MEMB      87              0.0000000000
     11596        93  POPC      H5Y            17.7853708846       -7.6454002756      -10.3528358510  MEMB      87              0.0000000000
     11597        93  POPC      C36            17.9700870060       -8.2956858540       -8.3010833172  MEMB      87              0.0000000000
     11598        93  POPC      H6X            18.9863917486       -7.9394629956       -8.5741248648  MEMB      87              0.0000000000
     11599        93  POPC      H6Y            17.9054863999       -9.2492224196       -7.7345894222  MEMB      87              0.0000000000
     11600        93  POPC      C37            17.3396278702       -7.0589178169       -7.5844646416  MEMB      87              0.0000000000
     11601        93  POPC      H7X            17.3088502291       -6.0503799579       -8.0494642312  MEMB      87              0.0000000000
     11602        93  POPC      H7Y            18.1217524021       -6.9482531149       -6.8032116568  MEMB      87              0.0000000000
     11603        93  POPC      C38            15.9454357632       -7.4147655377       -6.9684105980  MEMB      87              0.0000000000
     11604        93  POPC      H8X            16.0693552974       -8.4579428976       -6.6068226775  MEMB      87              0.0000000000
     11605        93  POPC      H8Y            15.2286064725       -7.4751303754       -7.8150706900  MEMB      87              0.0000000000
     11606        93  POPC      C39            15.5220814835       -6.2906923798       -5.9161623014  MEMB      87              0.0000000000
     11607        93  POPC      H9X            14.4322308198       -6.5062831579       -5.9079579209  MEMB      87              0.0000000000
     11608        93  POPC      H9Y            15.6740200784       -5.2776536778       -6.3462654026  MEMB      87              0.0000000000
     11609        93  POPC      C310           16.2713254830       -6.4572771695       -4.4807487188  MEMB      87              0.0000000000
     11610        93  POPC      H10X           17.3041017492       -6.0526245711       -4.5436027935  MEMB      87              0.0000000000
     11611        93  POPC      H10Y           16.2507843505       -7.5536832393       -4.3024435863  MEMB      87              0.0000000000
     11612        93  POPC      C311           15.5034695270       -5.6923374684       -3.4058638422  MEMB      87              0.0000000000
     11613        93  POPC      H11X           14.4553293183       -6.0358788919       -3.2728140987  MEMB      87              0.0000000000
     11614        93  POPC      H11Y           15.4409472319       -4.6378960065       -3.7501971320  MEMB      87              0.0000000000
     11615        93  POPC      C312           16.1275776272       -5.7437163482       -2.0138851450  MEMB      87              0.0000000000
     11616        93  POPC      H12X           15.7810503707       -5.1082917480       -1.1709876654  MEMB      87              0.0000000000
     11617        93  POPC      H12Y           17.2127035671       -5.6281346890       -2.2223659598  MEMB      87              0.0000000000
     11618        93  POPC      C313           15.9391295742       -7.1857396306       -1.3940582171  MEMB      87              0.0000000000
     11619        93  POPC      H13X           16.3460810468       -7.8606878103       -2.1771017430  MEMB      87              0.0000000000
     11620        93  POPC      H13Y           14.8432991178       -7.3671922011       -1.3705693275  MEMB      87              0.0000000000
     11621        93  POPC      C314           16.6791339525       -7.4831733789       -0.0810420650  MEMB      87              0.0000000000
     11622        93  POPC      H14X           17.7658282695       -7.6063220348       -0.2766205823  MEMB      87              0.0000000000
     11623        93  POPC      H14Y           16.3414622084       -8.5263138233        0.0982798969  MEMB      87              0.0000000000
     11624        93  POPC      C315           16.3526960791       -6.5312049634        1.1265007714  MEMB      87              0.0000000000
     11625        93  POPC      H15X           16.6560073158       -5.4847991246        0.9088832512  MEMB      87              0.0000000000
     11626        93  POPC      H15Y           16.8974253322       -6.8243922275        2.0493411795  MEMB      87              0.0000000000
     11627        93  POPC      C316           14.9119487663       -6.5855259044        1.5243892099  MEMB      87              0.0000000000
     11628        93  POPC      H16X           14.2231038770       -6.2795573320        0.7081794252  MEMB      87              0.0000000000
     11629        93  POPC      H16Y           14.7895550375       -5.7768792721        2.2763402631  MEMB      87              0.0000000000
     11630        93  POPC      H16Z           14.6337179186       -7.5541967201        1.9919204721  MEMB      87              0.0000000000
     11631        94  POPC      N              -5.1022391287       22.0968394207      -20.9146222064  MEMB      88              0.0000000000
     11632        94  POPC      C12            -4.9308858799       22.3175695308      -19.3674429734  MEMB      88              0.0000000000
     11633        94  POPC      H12A           -4.1738576711       23.0764840874      -19.2356969629  MEMB      88              0.0000000000
     11634        94  POPC      H12B           -4.5523727440       21.4227614946      -18.8958006893  MEMB      88              0.0000000000
     11635        94  POPC      C13            -5.6092700904       23.3707128181      -21.5461793877  MEMB      88              0.0000000000
     11636        94  POPC      H13A           -6.2562674866       23.8745443915      -20.8433650927  MEMB      88              0.0000000000
     11637        94  POPC      H13B           -4.8307994025       24.0343785261      -21.8924902779  MEMB      88              0.0000000000
     11638        94  POPC      H13C           -6.1423144335       23.1395681051      -22.4565837376  MEMB      88              0.0000000000
     11639        94  POPC      C14            -3.6863577632       21.7412476146      -21.4800316807  MEMB      88              0.0000000000
     11640        94  POPC      H14A           -3.7364398604       21.7786440956      -22.5582213677  MEMB      88              0.0000000000
     11641        94  POPC      H14B           -2.9516065881       22.4364605942      -21.1015883715  MEMB      88              0.0000000000
     11642        94  POPC      H14C           -3.3904565159       20.7671362647      -21.1195466101  MEMB      88              0.0000000000
     11643        94  POPC      C15            -6.0431695878       20.9212218457      -21.1310587622  MEMB      88              0.0000000000
     11644        94  POPC      H15A           -5.5595007994       20.0202498688      -20.7836196372  MEMB      88              0.0000000000
     11645        94  POPC      H15B           -6.3032594998       20.8558875328      -22.1772349706  MEMB      88              0.0000000000
     11646        94  POPC      H15C           -6.9338384237       21.1040439759      -20.5482338272  MEMB      88              0.0000000000
     11647        94  POPC      C11            -6.1874333104       22.7182367369      -18.6205999231  MEMB      88              0.0000000000
     11648        94  POPC      H11A           -6.7228397420       23.4516172298      -19.2607670527  MEMB      88              0.0000000000
     11649        94  POPC      H11B           -5.9181555669       23.2085006126      -17.6606771365  MEMB      88              0.0000000000
     11650        94  POPC      P              -7.0830024716       20.7952594315      -17.1879686220  MEMB      88              0.0000000000
     11651        94  POPC      O13            -5.6712834318       20.5085629559      -16.8670951116  MEMB      88              0.0000000000
     11652        94  POPC      O14            -8.0293787405       19.6120514250      -17.1670045560  MEMB      88              0.0000000000
     11653        94  POPC      O12            -7.1948002736       21.6487511935      -18.5109016212  MEMB      88              0.0000000000
     11654        94  POPC      O11            -7.6552668092       21.9219146743      -16.2070951563  MEMB      88              0.0000000000
     11655        94  POPC      C1             -8.8766944232       22.6589701097      -16.1654769785  MEMB      88              0.0000000000
     11656        94  POPC      HA             -9.3902940647       22.2968145970      -15.2493003608  MEMB      88              0.0000000000
     11657        94  POPC      HB             -9.5446432306       22.4888979136      -17.0368212459  MEMB      88              0.0000000000
     11658        94  POPC      C2             -8.7681334701       24.2247550014      -16.0733547585  MEMB      88              0.0000000000
     11659        94  POPC      HS             -8.7312067819       24.6010283618      -17.1180442190  MEMB      88              0.0000000000
     11660        94  POPC      O21            -7.5117549293       24.4308558101      -15.3585425652  MEMB      88              0.0000000000
     11661        94  POPC      C21            -6.9373496042       25.5762420176      -15.6384120177  MEMB      88              0.0000000000
     11662        94  POPC      O22            -7.3339419937       26.4802746433      -16.3828260822  MEMB      88              0.0000000000
     11663        94  POPC      C22            -5.4868861481       25.6778083395      -14.9742944469  MEMB      88              0.0000000000
     11664        94  POPC      H2R            -5.0844430856       26.7058119289      -15.0990722042  MEMB      88              0.0000000000
     11665        94  POPC      H2S            -4.8060843836       25.0120958110      -15.5467072871  MEMB      88              0.0000000000
     11666        94  POPC      C3            -10.0221270976       24.9048513983      -15.4070813717  MEMB      88              0.0000000000
     11667        94  POPC      HX            -10.8471467401       24.4886622670      -16.0238878136  MEMB      88              0.0000000000
     11668        94  POPC      HY             -9.9931606935       25.9754578338      -15.7025191785  MEMB      88              0.0000000000
     11669        94  POPC      O31           -10.2393452050       24.6523895369      -13.9843613897  MEMB      88              0.0000000000
     11670        94  POPC      C31            -9.7114928062       25.6331818940      -13.1944084343  MEMB      88              0.0000000000
     11671        94  POPC      O32            -9.3122815351       26.7193024076      -13.5442850308  MEMB      88              0.0000000000
     11672        94  POPC      C32            -9.5975455965       25.0120598392      -11.8344592714  MEMB      88              0.0000000000
     11673        94  POPC      H2X            -9.2263331345       23.9750293862      -11.9796830677  MEMB      88              0.0000000000
     11674        94  POPC      H2Y           -10.6124503870       25.0025484526      -11.3825755754  MEMB      88              0.0000000000
     11675        94  POPC      C23            -5.6334808737       25.4579050627      -13.4279887748  MEMB      88              0.0000000000
     11676        94  POPC      H3R            -6.3967403253       26.1928863566      -13.0939850482  MEMB      88              0.0000000000
     11677        94  POPC      H3S            -4.6698555188       25.7878897320      -12.9843023613  MEMB      88              0.0000000000
     11678        94  POPC      C24            -6.0178383454       24.0266675323      -12.8874788804  MEMB      88              0.0000000000
     11679        94  POPC      H4R            -6.5681732131       23.4803239739      -13.6830672098  MEMB      88              0.0000000000
     11680        94  POPC      H4S            -6.6683399016       24.1047368755      -11.9902195120  MEMB      88              0.0000000000
     11681        94  POPC      C25            -4.7555751709       23.0914066331      -12.6162416745  MEMB      88              0.0000000000
     11682        94  POPC      H5R            -4.3505148149       23.4139156799      -11.6332689194  MEMB      88              0.0000000000
     11683        94  POPC      H5S            -4.0868300071       23.2539741273      -13.4884071597  MEMB      88              0.0000000000
     11684        94  POPC      C26            -4.9928094827       21.6332521370      -12.5568184889  MEMB      88              0.0000000000
     11685        94  POPC      H6R            -4.0513952775       21.1285098189      -12.2513757918  MEMB      88              0.0000000000
     11686        94  POPC      H6S            -5.3837965359       21.2614816970      -13.5280223246  MEMB      88              0.0000000000
     11687        94  POPC      C27            -6.1022177486       21.0822250440      -11.6274180750  MEMB      88              0.0000000000
     11688        94  POPC      H7R            -7.0650978052       21.2064914406      -12.1675485349  MEMB      88              0.0000000000
     11689        94  POPC      H7S            -6.1429446543       21.5673082847      -10.6287402522  MEMB      88              0.0000000000
     11690        94  POPC      C28            -5.8046159425       19.5424132370      -11.3832995103  MEMB      88              0.0000000000
     11691        94  POPC      H8R            -5.8402365188       19.0496138973      -12.3783878489  MEMB      88              0.0000000000
     11692        94  POPC      H8S            -6.7236612260       19.1585375640      -10.8910432663  MEMB      88              0.0000000000
     11693        94  POPC      C29            -4.6426441429       19.2333592503      -10.4956288739  MEMB      88              0.0000000000
     11694        94  POPC      H91            -3.6643443369       19.2763358304      -10.9967102514  MEMB      88              0.0000000000
     11695        94  POPC      C210           -4.6758170142       18.9886139127       -9.1717331879  MEMB      88              0.0000000000
     11696        94  POPC      H101           -3.7157427891       18.8869743584       -8.6445456038  MEMB      88              0.0000000000
     11697        94  POPC      C211           -5.9698316558       18.9473975560       -8.3181905475  MEMB      88              0.0000000000
     11698        94  POPC      H11R           -6.0499717598       18.0385994926       -7.6841676811  MEMB      88              0.0000000000
     11699        94  POPC      H11S           -6.8700720100       19.0521386250       -8.9607771495  MEMB      88              0.0000000000
     11700        94  POPC      C212           -5.8548425562       20.0982569217       -7.2795476544  MEMB      88              0.0000000000
     11701        94  POPC      H12R           -5.7175125002       21.1043916572       -7.7302738048  MEMB      88              0.0000000000
     11702        94  POPC      H12S           -4.8930392607       20.0378262944       -6.7267331447  MEMB      88              0.0000000000
     11703        94  POPC      C213           -6.9573346704       20.1232731001       -6.2819615037  MEMB      88              0.0000000000
     11704        94  POPC      H13R           -6.8515775091       19.1841653563       -5.6978267402  MEMB      88              0.0000000000
     11705        94  POPC      H13S           -7.8708696661       20.0332515270       -6.9077973701  MEMB      88              0.0000000000
     11706        94  POPC      C214           -7.1887607478       21.4324598386       -5.4787149532  MEMB      88              0.0000000000
     11707        94  POPC      H14R           -7.6057329519       22.2074836919       -6.1567950588  MEMB      88              0.0000000000
     11708        94  POPC      H14S           -6.2515559871       21.8468700379       -5.0494919684  MEMB      88              0.0000000000
     11709        94  POPC      C215           -8.1492427740       21.3960637163       -4.2515906855  MEMB      88              0.0000000000
     11710        94  POPC      H15R           -9.2450223244       21.3656113711       -4.4323139586  MEMB      88              0.0000000000
     11711        94  POPC      H15S           -7.9414168336       22.2960991044       -3.6342860206  MEMB      88              0.0000000000
     11712        94  POPC      C216           -7.9302554318       20.1965613144       -3.2533575534  MEMB      88              0.0000000000
     11713        94  POPC      H16R           -8.1455418120       19.2629586083       -3.8158157133  MEMB      88              0.0000000000
     11714        94  POPC      H16S           -8.7010394696       20.2456361400       -2.4547314623  MEMB      88              0.0000000000
     11715        94  POPC      C217           -6.5040958042       20.1113395339       -2.5890817835  MEMB      88              0.0000000000
     11716        94  POPC      H17R           -6.4437784943       20.9534427003       -1.8669023226  MEMB      88              0.0000000000
     11717        94  POPC      H17S           -5.6280021483       20.1216039309       -3.2722181568  MEMB      88              0.0000000000
     11718        94  POPC      C218           -6.3067120590       18.8344511858       -1.7504768024  MEMB      88              0.0000000000
     11719        94  POPC      H18R           -5.2032852204       18.7689893870       -1.6387401655  MEMB      88              0.0000000000
     11720        94  POPC      H18S           -6.7530732110       17.8597937776       -2.0422387551  MEMB      88              0.0000000000
     11721        94  POPC      H18T           -6.7063012368       19.0115728843       -0.7290664259  MEMB      88              0.0000000000
     11722        94  POPC      C33            -8.5682284060       25.8649009202      -10.9007162931  MEMB      88              0.0000000000
     11723        94  POPC      H3X            -9.1015456919       26.8175688504      -10.6950016932  MEMB      88              0.0000000000
     11724        94  POPC      H3Y            -7.6495544141       26.1321851043      -11.4654445958  MEMB      88              0.0000000000
     11725        94  POPC      C34            -8.1821036289       25.1942078086       -9.6078096105  MEMB      88              0.0000000000
     11726        94  POPC      H4X            -7.8881366908       26.0217795465       -8.9273465261  MEMB      88              0.0000000000
     11727        94  POPC      H4Y            -7.3880438526       24.4318238696       -9.7580098015  MEMB      88              0.0000000000
     11728        94  POPC      C35            -9.2721879755       24.7000528126       -8.7596986984  MEMB      88              0.0000000000
     11729        94  POPC      H5X            -9.5497567216       23.7350923206       -9.2352266409  MEMB      88              0.0000000000
     11730        94  POPC      H5Y           -10.0824169573       25.4593361448       -8.7962889403  MEMB      88              0.0000000000
     11731        94  POPC      C36            -8.9205623448       24.5089967554       -7.2841285936  MEMB      88              0.0000000000
     11732        94  POPC      H6X            -7.8739262079       24.1481817296       -7.1909272698  MEMB      88              0.0000000000
     11733        94  POPC      H6Y            -9.5428216858       23.6867332263       -6.8706111020  MEMB      88              0.0000000000
     11734        94  POPC      C37            -9.2726748712       25.7753396237       -6.4185086528  MEMB      88              0.0000000000
     11735        94  POPC      H7X           -10.3008274948       26.1211483921       -6.6585901500  MEMB      88              0.0000000000
     11736        94  POPC      H7Y            -8.7090720361       26.6842869463       -6.7193193762  MEMB      88              0.0000000000
     11737        94  POPC      C38            -9.0517443097       25.4982914542       -4.8679533633  MEMB      88              0.0000000000
     11738        94  POPC      H8X            -9.6927387734       24.6193167508       -4.6424535502  MEMB      88              0.0000000000
     11739        94  POPC      H8Y            -9.3794964197       26.4513217144       -4.4003716878  MEMB      88              0.0000000000
     11740        94  POPC      C39            -7.5666227030       25.3709186017       -4.4083711377  MEMB      88              0.0000000000
     11741        94  POPC      H9X            -6.8601793254       26.1122195355       -4.8393371891  MEMB      88              0.0000000000
     11742        94  POPC      H9Y            -7.0748207522       24.3978483457       -4.6218813272  MEMB      88              0.0000000000
     11743        94  POPC      C310           -7.4059821249       25.5405847300       -2.9486507236  MEMB      88              0.0000000000
     11744        94  POPC      H10X           -8.1477088142       24.8489385473       -2.4950119084  MEMB      88              0.0000000000
     11745        94  POPC      H10Y           -7.6142679947       26.5922647326       -2.6572635992  MEMB      88              0.0000000000
     11746        94  POPC      C311           -6.0374467457       25.1298672596       -2.4702776429  MEMB      88              0.0000000000
     11747        94  POPC      H11X           -5.2968016672       25.7980314587       -2.9594829590  MEMB      88              0.0000000000
     11748        94  POPC      H11Y           -5.9442962146       24.0797765917       -2.8209232103  MEMB      88              0.0000000000
     11749        94  POPC      C312           -5.8364678942       25.2871564866       -0.9742254830  MEMB      88              0.0000000000
     11750        94  POPC      H12X           -6.7169993157       24.8006706420       -0.5027207932  MEMB      88              0.0000000000
     11751        94  POPC      H12Y           -5.6883276826       26.3740504383       -0.7980535305  MEMB      88              0.0000000000
     11752        94  POPC      C313           -4.5016666024       24.6710723842       -0.4774372920  MEMB      88              0.0000000000
     11753        94  POPC      H13X           -3.5454016963       24.9904202235       -0.9442292504  MEMB      88              0.0000000000
     11754        94  POPC      H13Y           -4.5692732074       23.5878081605       -0.7146907919  MEMB      88              0.0000000000
     11755        94  POPC      C314           -4.2861234773       24.8971531790        1.0738818046  MEMB      88              0.0000000000
     11756        94  POPC      H14X           -4.0171517173       25.9684453243        1.1935023645  MEMB      88              0.0000000000
     11757        94  POPC      H14Y           -3.4406526148       24.2877592816        1.4587709955  MEMB      88              0.0000000000
     11758        94  POPC      C315           -5.5842178019       24.6758528754        1.8754104752  MEMB      88              0.0000000000
     11759        94  POPC      H15X           -6.2713253748       25.4344460130        1.4432754159  MEMB      88              0.0000000000
     11760        94  POPC      H15Y           -5.4596183856       24.8875316592        2.9589175788  MEMB      88              0.0000000000
     11761        94  POPC      C316           -6.2138417912       23.3027922013        1.7413001338  MEMB      88              0.0000000000
     11762        94  POPC      H16X           -5.7991989400       22.5332996695        2.4270649323  MEMB      88              0.0000000000
     11763        94  POPC      H16Y           -6.1890507112       22.8593188378        0.7229494639  MEMB      88              0.0000000000
     11764        94  POPC      H16Z           -7.3096419956       23.3672371262        1.9127344734  MEMB      88              0.0000000000
     11765        95  POPC      N             -22.7812924753        4.7073168235      -20.6135954465  MEMB      89              0.0000000000
     11766        95  POPC      C12           -21.4431399519        5.2204318673      -20.2218187101  MEMB      89              0.0000000000
     11767        95  POPC      H12A          -21.4452456287        6.2948175607      -20.3317772811  MEMB      89              0.0000000000
     11768        95  POPC      H12B          -20.6814501326        4.9011408330      -20.9177224172  MEMB      89              0.0000000000
     11769        95  POPC      C13           -23.8157024133        5.1622165042      -19.6744092471  MEMB      89              0.0000000000
     11770        95  POPC      H13A          -23.8865605637        4.4323713762      -18.8814999342  MEMB      89              0.0000000000
     11771        95  POPC      H13B          -23.5028095592        6.0685104187      -19.1772877462  MEMB      89              0.0000000000
     11772        95  POPC      H13C          -24.7467109341        5.3766816781      -20.1780238355  MEMB      89              0.0000000000
     11773        95  POPC      C14           -23.0804566520        5.2107948350      -22.0249405249  MEMB      89              0.0000000000
     11774        95  POPC      H14A          -23.1987067987        6.2839504247      -21.9974844565  MEMB      89              0.0000000000
     11775        95  POPC      H14B          -22.2379626198        4.8635672744      -22.6046275332  MEMB      89              0.0000000000
     11776        95  POPC      H14C          -24.0038426831        4.7844209391      -22.3882083479  MEMB      89              0.0000000000
     11777        95  POPC      C15           -22.6130665505        3.1733929959      -20.6936693478  MEMB      89              0.0000000000
     11778        95  POPC      H15A          -23.5529013856        2.6803515608      -20.8937207443  MEMB      89              0.0000000000
     11779        95  POPC      H15B          -22.0910239484        3.0454883649      -19.7569133038  MEMB      89              0.0000000000
     11780        95  POPC      H15C          -21.9494841092        2.9365396236      -21.5121795802  MEMB      89              0.0000000000
     11781        95  POPC      C11           -20.8879901907        4.8409901867      -18.8266828688  MEMB      89              0.0000000000
     11782        95  POPC      H11A          -21.6819158431        5.1115138922      -18.0981089011  MEMB      89              0.0000000000
     11783        95  POPC      H11B          -20.0183387074        5.4956162834      -18.6042149568  MEMB      89              0.0000000000
     11784        95  POPC      P             -20.3464540930        2.7699707363      -17.3536171637  MEMB      89              0.0000000000
     11785        95  POPC      O13           -19.3214502558        3.5809416467      -16.6663730457  MEMB      89              0.0000000000
     11786        95  POPC      O14           -19.9995720555        1.3061099537      -17.5708574012  MEMB      89              0.0000000000
     11787        95  POPC      O12           -20.4189892590        3.5544652986      -18.7616505976  MEMB      89              0.0000000000
     11788        95  POPC      O11           -21.8274985912        2.8478706699      -16.5923856412  MEMB      89              0.0000000000
     11789        95  POPC      C1            -22.6057641468        1.6655785525      -16.6878868136  MEMB      89              0.0000000000
     11790        95  POPC      HA            -22.2096557851        0.8534707714      -16.0414349433  MEMB      89              0.0000000000
     11791        95  POPC      HB            -22.7617132236        1.2680957563      -17.7135614260  MEMB      89              0.0000000000
     11792        95  POPC      C2            -24.0163220586        2.1186950258      -16.1366893147  MEMB      89              0.0000000000
     11793        95  POPC      HS            -24.5340176070        2.4492564451      -17.0624546686  MEMB      89              0.0000000000
     11794        95  POPC      O21           -23.8514845785        3.1309706387      -15.1552484489  MEMB      89              0.0000000000
     11795        95  POPC      C21           -24.8811934547        3.7346865971      -14.6647727570  MEMB      89              0.0000000000
     11796        95  POPC      O22           -26.0021882172        3.7292956569      -15.1052046145  MEMB      89              0.0000000000
     11797        95  POPC      C22           -24.3745183437        4.5255965265      -13.4205339801  MEMB      89              0.0000000000
     11798        95  POPC      H2R           -24.3692530932        5.5834870013      -13.7598884863  MEMB      89              0.0000000000
     11799        95  POPC      H2S           -23.3498289342        4.2337975214      -13.1055961967  MEMB      89              0.0000000000
     11800        95  POPC      C3            -24.7688646296        0.8991558244      -15.4623699708  MEMB      89              0.0000000000
     11801        95  POPC      HX            -24.9590413267        0.0881777361      -16.1975357221  MEMB      89              0.0000000000
     11802        95  POPC      HY            -25.7141583193        1.2621219911      -15.0052091963  MEMB      89              0.0000000000
     11803        95  POPC      O31           -24.1690527607        0.4634817553      -14.2472645638  MEMB      89              0.0000000000
     11804        95  POPC      C31           -23.5304184331       -0.6837544375      -14.0906104073  MEMB      89              0.0000000000
     11805        95  POPC      O32           -23.3655312136       -1.5374064897      -14.9285924309  MEMB      89              0.0000000000
     11806        95  POPC      C32           -22.7796345771       -0.6268996748      -12.7580841925  MEMB      89              0.0000000000
     11807        95  POPC      H2X           -22.3924299220       -1.6630976049      -12.6547056228  MEMB      89              0.0000000000
     11808        95  POPC      H2Y           -23.5532661855       -0.4963237500      -11.9714678459  MEMB      89              0.0000000000
     11809        95  POPC      C23           -25.4884152116        4.2767306552      -12.3577276717  MEMB      89              0.0000000000
     11810        95  POPC      H3R           -25.2572453049        3.2280430166      -12.0728848844  MEMB      89              0.0000000000
     11811        95  POPC      H3S           -26.5371191534        4.3219516771      -12.7217277339  MEMB      89              0.0000000000
     11812        95  POPC      C24           -25.3644082056        5.2769279043      -11.2088224846  MEMB      89              0.0000000000
     11813        95  POPC      H4R           -25.6186905661        6.3073083961      -11.5374214435  MEMB      89              0.0000000000
     11814        95  POPC      H4S           -24.2734436360        5.1655391976      -11.0307495852  MEMB      89              0.0000000000
     11815        95  POPC      C25           -26.2015090122        4.9456195900       -9.9686603542  MEMB      89              0.0000000000
     11816        95  POPC      H5R           -25.9619053188        3.9151450335       -9.6294948950  MEMB      89              0.0000000000
     11817        95  POPC      H5S           -27.2916460550        5.1066416226      -10.1100608006  MEMB      89              0.0000000000
     11818        95  POPC      C26           -25.8021168378        5.9293711880       -8.8085537593  MEMB      89              0.0000000000
     11819        95  POPC      H6R           -25.9819701741        6.9231969634       -9.2714624410  MEMB      89              0.0000000000
     11820        95  POPC      H6S           -24.7373038658        5.8244326240       -8.5094180705  MEMB      89              0.0000000000
     11821        95  POPC      C27           -26.4880049828        5.9002206567       -7.4392705013  MEMB      89              0.0000000000
     11822        95  POPC      H7R           -27.4677385242        6.3990244087       -7.5993876803  MEMB      89              0.0000000000
     11823        95  POPC      H7S           -25.9021557640        6.4747849540       -6.6902862429  MEMB      89              0.0000000000
     11824        95  POPC      C28           -26.7769485192        4.4589324944       -6.9520278739  MEMB      89              0.0000000000
     11825        95  POPC      H8R           -25.8635596666        3.8307125427       -7.0253870471  MEMB      89              0.0000000000
     11826        95  POPC      H8S           -27.4444726812        3.8585111799       -7.6064181831  MEMB      89              0.0000000000
     11827        95  POPC      C29           -27.3170029606        4.4845915428       -5.5174963568  MEMB      89              0.0000000000
     11828        95  POPC      H91           -27.9063921220        5.4017576308       -5.3711174564  MEMB      89              0.0000000000
     11829        95  POPC      C210          -27.0102529018        3.6433305212       -4.4966719305  MEMB      89              0.0000000000
     11830        95  POPC      H101          -27.5209987575        3.9031057200       -3.5577071096  MEMB      89              0.0000000000
     11831        95  POPC      C211          -26.0572261441        2.4132006989       -4.4031047398  MEMB      89              0.0000000000
     11832        95  POPC      H11R          -25.9749929405        1.9643435420       -5.4160638059  MEMB      89              0.0000000000
     11833        95  POPC      H11S          -26.4971130409        1.6520752718       -3.7237606955  MEMB      89              0.0000000000
     11834        95  POPC      C212          -24.5965815215        2.6818930592       -3.9896112926  MEMB      89              0.0000000000
     11835        95  POPC      H12R          -24.1898486821        3.4798845155       -4.6469537085  MEMB      89              0.0000000000
     11836        95  POPC      H12S          -23.9289609518        1.7992955543       -4.0877210201  MEMB      89              0.0000000000
     11837        95  POPC      C213          -24.5229115870        3.1656762378       -2.5109307260  MEMB      89              0.0000000000
     11838        95  POPC      H13R          -25.2417637009        4.0096963746       -2.4388013285  MEMB      89              0.0000000000
     11839        95  POPC      H13S          -23.4993303692        3.5264144414       -2.2732956662  MEMB      89              0.0000000000
     11840        95  POPC      C214          -25.0024825692        2.1834963297       -1.4091098529  MEMB      89              0.0000000000
     11841        95  POPC      H14R          -25.6970559971        1.4238651557       -1.8272597950  MEMB      89              0.0000000000
     11842        95  POPC      H14S          -25.5772379545        2.7933647779       -0.6796999708  MEMB      89              0.0000000000
     11843        95  POPC      C215          -23.7708538620        1.3813184469       -0.8284606827  MEMB      89              0.0000000000
     11844        95  POPC      H15R          -23.1342986445        1.9879738923       -0.1494262692  MEMB      89              0.0000000000
     11845        95  POPC      H15S          -23.2541334085        0.9637050752       -1.7189213670  MEMB      89              0.0000000000
     11846        95  POPC      C216          -24.0496977598        0.1362196843        0.1196207065  MEMB      89              0.0000000000
     11847        95  POPC      H16R          -24.7218896406       -0.5232184049       -0.4699727756  MEMB      89              0.0000000000
     11848        95  POPC      H16S          -24.5426158325        0.4898627823        1.0503660390  MEMB      89              0.0000000000
     11849        95  POPC      C217          -22.7714063979       -0.7146126143        0.3802824494  MEMB      89              0.0000000000
     11850        95  POPC      H17R          -22.0453811959       -0.1450086227        0.9989578137  MEMB      89              0.0000000000
     11851        95  POPC      H17S          -22.3702691189       -0.7455700951       -0.6553094567  MEMB      89              0.0000000000
     11852        95  POPC      C218          -22.8968945142       -2.1568002141        0.6665354655  MEMB      89              0.0000000000
     11853        95  POPC      H18R          -21.8936006622       -2.6327370176        0.7012687256  MEMB      89              0.0000000000
     11854        95  POPC      H18S          -23.5407135129       -2.5611726939       -0.1435887734  MEMB      89              0.0000000000
     11855        95  POPC      H18T          -23.3486413555       -2.4514476541        1.6378370845  MEMB      89              0.0000000000
     11856        95  POPC      C33           -21.5687948312        0.3477562215      -12.7997831505  MEMB      89              0.0000000000
     11857        95  POPC      H3X           -21.1109274756        0.0401748777      -13.7641859322  MEMB      89              0.0000000000
     11858        95  POPC      H3Y           -20.8610964127       -0.0879605276      -12.0624673460  MEMB      89              0.0000000000
     11859        95  POPC      C34           -21.7800030812        1.8075236985      -12.2954126648  MEMB      89              0.0000000000
     11860        95  POPC      H4X           -22.3039491069        2.4823399835      -13.0056411002  MEMB      89              0.0000000000
     11861        95  POPC      H4Y           -20.7428991120        2.1712223421      -12.1327481511  MEMB      89              0.0000000000
     11862        95  POPC      C35           -22.6996608187        1.9642217230      -11.0557157299  MEMB      89              0.0000000000
     11863        95  POPC      H5X           -23.7181687324        1.5409398860      -11.1891142023  MEMB      89              0.0000000000
     11864        95  POPC      H5Y           -22.7450828578        3.0455496275      -10.8047417090  MEMB      89              0.0000000000
     11865        95  POPC      C36           -22.0996001745        1.2705544064       -9.7986638611  MEMB      89              0.0000000000
     11866        95  POPC      H6X           -21.0125905563        1.4663261310       -9.6786451546  MEMB      89              0.0000000000
     11867        95  POPC      H6Y           -22.1185075323        0.1608375794       -9.8485877155  MEMB      89              0.0000000000
     11868        95  POPC      C37           -22.8577399085        1.6501335435       -8.5649943420  MEMB      89              0.0000000000
     11869        95  POPC      H7X           -22.6154191557        0.9576822578       -7.7306607189  MEMB      89              0.0000000000
     11870        95  POPC      H7Y           -23.9480061574        1.5945852201       -8.7712828917  MEMB      89              0.0000000000
     11871        95  POPC      C38           -22.6277312739        3.0546543226       -7.9175199427  MEMB      89              0.0000000000
     11872        95  POPC      H8X           -23.4645483591        3.3789557552       -7.2626255169  MEMB      89              0.0000000000
     11873        95  POPC      H8Y           -22.4549673540        3.8409929366       -8.6831213028  MEMB      89              0.0000000000
     11874        95  POPC      C39           -21.4047924698        2.9367629110       -6.9750606619  MEMB      89              0.0000000000
     11875        95  POPC      H9X           -20.6164156913        2.3726162544       -7.5177594050  MEMB      89              0.0000000000
     11876        95  POPC      H9Y           -21.7462490266        2.3149737225       -6.1200126568  MEMB      89              0.0000000000
     11877        95  POPC      C310          -20.7513328871        4.2520073981       -6.4442773383  MEMB      89              0.0000000000
     11878        95  POPC      H10X          -21.5235932018        4.8740879228       -5.9433274603  MEMB      89              0.0000000000
     11879        95  POPC      H10Y          -20.2371406954        4.8202498865       -7.2486574925  MEMB      89              0.0000000000
     11880        95  POPC      C311          -19.6944385041        3.9924624286       -5.3192516743  MEMB      89              0.0000000000
     11881        95  POPC      H11X          -19.3265299959        5.0165158927       -5.0950220759  MEMB      89              0.0000000000
     11882        95  POPC      H11Y          -18.7645112463        3.4825112041       -5.6501693296  MEMB      89              0.0000000000
     11883        95  POPC      C312          -20.1866844420        3.3181505436       -3.9662729127  MEMB      89              0.0000000000
     11884        95  POPC      H12X          -20.3204919880        2.2229279745       -4.0962884988  MEMB      89              0.0000000000
     11885        95  POPC      H12Y          -21.0695260319        3.7291211845       -3.4314686638  MEMB      89              0.0000000000
     11886        95  POPC      C313          -19.1511654299        3.3570816037       -2.8344522962  MEMB      89              0.0000000000
     11887        95  POPC      H13X          -18.8813865646        4.4044269634       -2.5802710021  MEMB      89              0.0000000000
     11888        95  POPC      H13Y          -18.1809424871        2.9251736283       -3.1607093378  MEMB      89              0.0000000000
     11889        95  POPC      C314          -19.6460652285        2.7866363272       -1.4923102993  MEMB      89              0.0000000000
     11890        95  POPC      H14X          -20.6495894174        3.2174825723       -1.2882738505  MEMB      89              0.0000000000
     11891        95  POPC      H14Y          -18.9137961889        3.2007578908       -0.7666340186  MEMB      89              0.0000000000
     11892        95  POPC      C315          -19.5034163048        1.2955203755       -1.3419747302  MEMB      89              0.0000000000
     11893        95  POPC      H15X          -20.3620326071        0.7817192590       -1.8247860882  MEMB      89              0.0000000000
     11894        95  POPC      H15Y          -19.6033670322        1.0367025256       -0.2661738038  MEMB      89              0.0000000000
     11895        95  POPC      C316          -18.1555227157        0.6237917690       -1.7588245681  MEMB      89              0.0000000000
     11896        95  POPC      H16X          -18.2855933628       -0.4750850385       -1.8581845040  MEMB      89              0.0000000000
     11897        95  POPC      H16Y          -17.3470455857        0.9388408082       -1.0649740497  MEMB      89              0.0000000000
     11898        95  POPC      H16Z          -17.9533306141        1.0662508916       -2.7576584605  MEMB      89              0.0000000000
     11899        96  POPC      N             -13.3661860190       18.1922436483      -20.9177911455  MEMB      90              0.0000000000
     11900        96  POPC      C12           -14.5923051455       17.7707534661      -20.1003576747  MEMB      90              0.0000000000
     11901        96  POPC      H12A          -15.3884108621       17.7868029911      -20.8299864493  MEMB      90              0.0000000000
     11902        96  POPC      H12B          -14.8220190247       18.5051585768      -19.3425445500  MEMB      90              0.0000000000
     11903        96  POPC      C13           -12.9025316563       17.2067175241      -21.9661769549  MEMB      90              0.0000000000
     11904        96  POPC      H13A          -13.5997778394       16.8274434573      -22.6985698301  MEMB      90              0.0000000000
     11905        96  POPC      H13B          -12.0740362571       17.5610093818      -22.5615528439  MEMB      90              0.0000000000
     11906        96  POPC      H13C          -12.6093917909       16.3378828529      -21.3955674206  MEMB      90              0.0000000000
     11907        96  POPC      C14           -13.8595879282       19.5103845076      -21.4865780311  MEMB      90              0.0000000000
     11908        96  POPC      H14A          -13.6604124407       20.1593675979      -20.6466077559  MEMB      90              0.0000000000
     11909        96  POPC      H14B          -13.2621252238       19.8441214386      -22.3220768015  MEMB      90              0.0000000000
     11910        96  POPC      H14C          -14.8722078102       19.3812166489      -21.8391633115  MEMB      90              0.0000000000
     11911        96  POPC      C15           -12.2351677144       18.5994312831      -20.0284531138  MEMB      90              0.0000000000
     11912        96  POPC      H15A          -12.0024470022       17.8879280736      -19.2499903199  MEMB      90              0.0000000000
     11913        96  POPC      H15B          -12.6823460091       19.4137430360      -19.4777008766  MEMB      90              0.0000000000
     11914        96  POPC      H15C          -11.3074008678       19.0424590201      -20.3591719787  MEMB      90              0.0000000000
     11915        96  POPC      C11           -14.6311664429       16.4232349363      -19.3909727649  MEMB      90              0.0000000000
     11916        96  POPC      H11A          -14.7887600483       15.6157310850      -20.1375801955  MEMB      90              0.0000000000
     11917        96  POPC      H11B          -15.5313436831       16.4692097039      -18.7414435799  MEMB      90              0.0000000000
     11918        96  POPC      P             -13.5989993332       16.2049835394      -16.9974404884  MEMB      90              0.0000000000
     11919        96  POPC      O13           -13.2092062853       17.5730010058      -16.5663074669  MEMB      90              0.0000000000
     11920        96  POPC      O14           -12.7842409901       15.0724349763      -16.4579434160  MEMB      90              0.0000000000
     11921        96  POPC      O12           -13.4662581040       16.1227711334      -18.5789128473  MEMB      90              0.0000000000
     11922        96  POPC      O11           -15.0738741464       15.8626612817      -16.5090660970  MEMB      90              0.0000000000
     11923        96  POPC      C1            -15.7559193343       14.7080813335      -16.8193558488  MEMB      90              0.0000000000
     11924        96  POPC      HA            -15.0988012717       13.8407838132      -17.0436591792  MEMB      90              0.0000000000
     11925        96  POPC      HB            -16.3359969469       14.8171232005      -17.7606002619  MEMB      90              0.0000000000
     11926        96  POPC      C2            -16.7998138210       14.4060045809      -15.6870471118  MEMB      90              0.0000000000
     11927        96  POPC      HS            -17.6070161679       13.7512393966      -16.0795107385  MEMB      90              0.0000000000
     11928        96  POPC      O21           -17.3797794760       15.6451056005      -15.1650068209  MEMB      90              0.0000000000
     11929        96  POPC      C21           -17.8388819116       16.5344465152      -15.9556460406  MEMB      90              0.0000000000
     11930        96  POPC      O22           -18.1069131668       16.4717687755      -17.1626833028  MEMB      90              0.0000000000
     11931        96  POPC      C22           -18.1533310048       17.7124260677      -15.0845617728  MEMB      90              0.0000000000
     11932        96  POPC      H2R           -18.4550315713       17.3854666724      -14.0665270474  MEMB      90              0.0000000000
     11933        96  POPC      H2S           -18.9956223689       18.2560248203      -15.5634846287  MEMB      90              0.0000000000
     11934        96  POPC      C3            -16.2997561981       13.5899657487      -14.4789491071  MEMB      90              0.0000000000
     11935        96  POPC      HX            -16.0597569564       12.5491680173      -14.7846631809  MEMB      90              0.0000000000
     11936        96  POPC      HY            -17.1650223673       13.6084792594      -13.7823198882  MEMB      90              0.0000000000
     11937        96  POPC      O31           -15.1682133234       14.2191023844      -13.9769409267  MEMB      90              0.0000000000
     11938        96  POPC      C31           -15.0843529370       14.0915272245      -12.6238335602  MEMB      90              0.0000000000
     11939        96  POPC      O32           -15.7877560541       13.4675664330      -11.8992566869  MEMB      90              0.0000000000
     11940        96  POPC      C32           -13.7974840691       14.8536083092      -12.1470660504  MEMB      90              0.0000000000
     11941        96  POPC      H2X           -13.9902368991       15.8853475392      -11.7828111513  MEMB      90              0.0000000000
     11942        96  POPC      H2Y           -13.0540588342       14.9993269172      -12.9597198587  MEMB      90              0.0000000000
     11943        96  POPC      C23           -16.8385786228       18.3983570480      -14.9323108445  MEMB      90              0.0000000000
     11944        96  POPC      H3R           -16.2872192846       18.4901359376      -15.8924672066  MEMB      90              0.0000000000
     11945        96  POPC      H3S           -16.2614569453       17.7311100500      -14.2570087276  MEMB      90              0.0000000000
     11946        96  POPC      C24           -16.9936267851       19.8453753652      -14.3790837979  MEMB      90              0.0000000000
     11947        96  POPC      H4R           -17.5568116668       20.3491145858      -15.1935715220  MEMB      90              0.0000000000
     11948        96  POPC      H4S           -15.9867005379       20.3134812908      -14.4151030685  MEMB      90              0.0000000000
     11949        96  POPC      C25           -17.6435357445       20.0331628594      -13.0306905276  MEMB      90              0.0000000000
     11950        96  POPC      H5R           -18.3761344002       19.2099844081      -12.8892783342  MEMB      90              0.0000000000
     11951        96  POPC      H5S           -18.2054651839       20.9854756652      -12.9227218593  MEMB      90              0.0000000000
     11952        96  POPC      C26           -16.6473518740       19.9137946164      -11.8985335519  MEMB      90              0.0000000000
     11953        96  POPC      H6R           -15.9289212272       20.7600225754      -11.8529617481  MEMB      90              0.0000000000
     11954        96  POPC      H6S           -15.9928016824       19.0432013939      -12.1175142122  MEMB      90              0.0000000000
     11955        96  POPC      C27           -17.3635174709       19.5952757272      -10.5498228885  MEMB      90              0.0000000000
     11956        96  POPC      H7R           -17.8164265676       18.5816568127      -10.5919066479  MEMB      90              0.0000000000
     11957        96  POPC      H7S           -18.1275657858       20.3789097775      -10.3588548009  MEMB      90              0.0000000000
     11958        96  POPC      C28           -16.4214658606       19.4373405845       -9.3090172713  MEMB      90              0.0000000000
     11959        96  POPC      H8R           -17.1106338010       19.2575881249       -8.4563399472  MEMB      90              0.0000000000
     11960        96  POPC      H8S           -15.9017379826       20.4093083590       -9.1694375454  MEMB      90              0.0000000000
     11961        96  POPC      C29           -15.4729696523       18.2387254092       -9.2781363632  MEMB      90              0.0000000000
     11962        96  POPC      H91           -15.9280654068       17.2374619958       -9.2591788593  MEMB      90              0.0000000000
     11963        96  POPC      C210          -14.1620564370       18.3277274338       -9.1806541632  MEMB      90              0.0000000000
     11964        96  POPC      H101          -13.6815597402       17.3534784494       -9.3537498937  MEMB      90              0.0000000000
     11965        96  POPC      C211          -13.2976178614       19.6252748944       -9.0810439175  MEMB      90              0.0000000000
     11966        96  POPC      H11R          -13.7014464967       20.4920668930       -9.6466540442  MEMB      90              0.0000000000
     11967        96  POPC      H11S          -12.3600523605       19.4568395151       -9.6528149072  MEMB      90              0.0000000000
     11968        96  POPC      C212          -13.0268026972       20.0938146246       -7.6840490380  MEMB      90              0.0000000000
     11969        96  POPC      H12R          -13.9422601804       20.3391319991       -7.1043263811  MEMB      90              0.0000000000
     11970        96  POPC      H12S          -12.4592852416       21.0461353341       -7.7570546049  MEMB      90              0.0000000000
     11971        96  POPC      C213          -12.3057930977       19.0272162356       -6.8273990242  MEMB      90              0.0000000000
     11972        96  POPC      H13R          -11.3845170885       18.7196188969       -7.3668013455  MEMB      90              0.0000000000
     11973        96  POPC      H13S          -12.9799228475       18.1700277894       -6.6150351918  MEMB      90              0.0000000000
     11974        96  POPC      C214          -11.7857081922       19.6635565210       -5.5156298149  MEMB      90              0.0000000000
     11975        96  POPC      H14R          -11.7852769193       20.7692769297       -5.6238118008  MEMB      90              0.0000000000
     11976        96  POPC      H14S          -10.7377842344       19.4018064744       -5.2555082843  MEMB      90              0.0000000000
     11977        96  POPC      C215          -12.5466724746       19.1507295954       -4.3137087501  MEMB      90              0.0000000000
     11978        96  POPC      H15R          -12.2085388989       18.1006023951       -4.1824860036  MEMB      90              0.0000000000
     11979        96  POPC      H15S          -13.6380045674       19.2795965257       -4.4771368018  MEMB      90              0.0000000000
     11980        96  POPC      C216          -12.1262404479       19.8773420698       -2.9811104031  MEMB      90              0.0000000000
     11981        96  POPC      H16R          -12.2300326063       20.9802437327       -3.0657072455  MEMB      90              0.0000000000
     11982        96  POPC      H16S          -11.0513952883       19.7045184102       -2.7593877762  MEMB      90              0.0000000000
     11983        96  POPC      C217          -12.9375591123       19.3552234620       -1.7811845616  MEMB      90              0.0000000000
     11984        96  POPC      H17R          -12.5582600191       19.7735072765       -0.8243714280  MEMB      90              0.0000000000
     11985        96  POPC      H17S          -12.9551726723       18.2460449214       -1.8422896480  MEMB      90              0.0000000000
     11986        96  POPC      C218          -14.3607936271       19.9464579329       -1.8900936758  MEMB      90              0.0000000000
     11987        96  POPC      H18R          -14.9235432121       19.5806109773       -2.7754122223  MEMB      90              0.0000000000
     11988        96  POPC      H18S          -14.3605026366       21.0429280962       -2.0691842333  MEMB      90              0.0000000000
     11989        96  POPC      H18T          -14.9513935712       19.6978401264       -0.9825122683  MEMB      90              0.0000000000
     11990        96  POPC      C33           -13.2183157321       13.9220235588      -11.0343563818  MEMB      90              0.0000000000
     11991        96  POPC      H3X           -12.8065322684       13.0252791113      -11.5448515061  MEMB      90              0.0000000000
     11992        96  POPC      H3Y           -14.0874746614       13.6832439698      -10.3848430263  MEMB      90              0.0000000000
     11993        96  POPC      C34           -12.1600668616       14.6672579953      -10.1871060001  MEMB      90              0.0000000000
     11994        96  POPC      H4X           -12.5415591244       15.6339657602       -9.7943464211  MEMB      90              0.0000000000
     11995        96  POPC      H4Y           -11.2447780579       14.7883162080      -10.8050973695  MEMB      90              0.0000000000
     11996        96  POPC      C35           -11.8051710792       13.8611115923       -8.9094019370  MEMB      90              0.0000000000
     11997        96  POPC      H5X           -10.7262248042       13.5992853605       -8.9499289949  MEMB      90              0.0000000000
     11998        96  POPC      H5Y           -12.5067261711       13.0000998050       -8.9376842483  MEMB      90              0.0000000000
     11999        96  POPC      C36           -11.8300990924       14.6048700804       -7.5667877622  MEMB      90              0.0000000000
     12000        96  POPC      H6X           -11.1426226457       15.4769333257       -7.6014664738  MEMB      90              0.0000000000
     12001        96  POPC      H6Y           -11.7274257536       13.9840831198       -6.6511446674  MEMB      90              0.0000000000
     12002        96  POPC      C37           -13.2226112441       15.0705600168       -7.0854014997  MEMB      90              0.0000000000
     12003        96  POPC      H7X           -13.6815389799       15.9724254488       -7.5440350075  MEMB      90              0.0000000000
     12004        96  POPC      H7Y           -12.9311461727       15.3930384129       -6.0629651557  MEMB      90              0.0000000000
     12005        96  POPC      C38           -14.3575636950       13.9881434156       -7.1816164707  MEMB      90              0.0000000000
     12006        96  POPC      H8X           -13.8663005047       13.0377915316       -6.8819284682  MEMB      90              0.0000000000
     12007        96  POPC      H8Y           -14.8207676763       14.0330174775       -8.1904521377  MEMB      90              0.0000000000
     12008        96  POPC      C39           -15.4806573416       14.1895172238       -6.1328298845  MEMB      90              0.0000000000
     12009        96  POPC      H9X           -16.1986628771       13.3417484935       -6.1240578197  MEMB      90              0.0000000000
     12010        96  POPC      H9Y           -16.1451184079       15.0488666106       -6.3659199187  MEMB      90              0.0000000000
     12011        96  POPC      C310          -14.9894358291       14.3416830801       -4.6399143148  MEMB      90              0.0000000000
     12012        96  POPC      H10X          -14.6256012702       15.3851242392       -4.5251265556  MEMB      90              0.0000000000
     12013        96  POPC      H10Y          -14.0871317527       13.7287807235       -4.4289188461  MEMB      90              0.0000000000
     12014        96  POPC      C311          -16.0651872043       14.0370630462       -3.6061194504  MEMB      90              0.0000000000
     12015        96  POPC      H11X          -16.4940800425       13.0423413990       -3.8529005632  MEMB      90              0.0000000000
     12016        96  POPC      H11Y          -16.9131807546       14.7502901427       -3.6869589035  MEMB      90              0.0000000000
     12017        96  POPC      C312          -15.5002495640       14.1099866725       -2.1210670858  MEMB      90              0.0000000000
     12018        96  POPC      H12X          -14.9699227132       15.0619562558       -1.9046692980  MEMB      90              0.0000000000
     12019        96  POPC      H12Y          -14.7867150076       13.2593482005       -2.0810201398  MEMB      90              0.0000000000
     12020        96  POPC      C313          -16.6095089629       14.0173856268       -1.0630230602  MEMB      90              0.0000000000
     12021        96  POPC      H13X          -16.3190293154       13.4639108042       -0.1445407308  MEMB      90              0.0000000000
     12022        96  POPC      H13Y          -17.4653170798       13.3822281293       -1.3768510568  MEMB      90              0.0000000000
     12023        96  POPC      C314          -17.0690028603       15.3866823056       -0.4721933254  MEMB      90              0.0000000000
     12024        96  POPC      H14X          -17.7372474319       15.1377554569        0.3797487336  MEMB      90              0.0000000000
     12025        96  POPC      H14Y          -17.7180993747       15.8470407332       -1.2474774270  MEMB      90              0.0000000000
     12026        96  POPC      C315          -15.8871788741       16.3304893586        0.0547465607  MEMB      90              0.0000000000
     12027        96  POPC      H15X          -16.3701608883       17.2910840280        0.3345824398  MEMB      90              0.0000000000
     12028        96  POPC      H15Y          -15.2490050752       16.6536646351       -0.7953184541  MEMB      90              0.0000000000
     12029        96  POPC      C316          -15.0120562571       15.6741973769        1.1252801212  MEMB      90              0.0000000000
     12030        96  POPC      H16X          -14.6700986850       14.6979667047        0.7198682275  MEMB      90              0.0000000000
     12031        96  POPC      H16Y          -15.6053578989       15.6713378997        2.0645911719  MEMB      90              0.0000000000
     12032        96  POPC      H16Z          -14.1833764963       16.4083000239        1.2185761421  MEMB      90              0.0000000000
     12033        97  POPC      N             -22.7616698009       -2.4958695863      -19.5826038147  MEMB      91              0.0000000000
     12034        97  POPC      C12           -22.1554556992       -3.2255541949      -18.3542014693  MEMB      91              0.0000000000
     12035        97  POPC      H12A          -22.9376445165       -3.2166691084      -17.6095527962  MEMB      91              0.0000000000
     12036        97  POPC      H12B          -21.3539076149       -2.6155026248      -17.9646403160  MEMB      91              0.0000000000
     12037        97  POPC      C13           -21.6636007216       -2.2409821395      -20.5675806499  MEMB      91              0.0000000000
     12038        97  POPC      H13A          -21.3715124414       -3.2047718149      -20.9577009170  MEMB      91              0.0000000000
     12039        97  POPC      H13B          -21.8988275960       -1.5143784158      -21.3312007748  MEMB      91              0.0000000000
     12040        97  POPC      H13C          -20.7950905738       -1.8838388186      -20.0341588640  MEMB      91              0.0000000000
     12041        97  POPC      C14           -23.8912780322       -3.2717880257      -20.1841078831  MEMB      91              0.0000000000
     12042        97  POPC      H14A          -23.5971394497       -3.7067611709      -21.1278667969  MEMB      91              0.0000000000
     12043        97  POPC      H14B          -24.2486076796       -4.0316097773      -19.5048536182  MEMB      91              0.0000000000
     12044        97  POPC      H14C          -24.6101662887       -2.5202869306      -20.4753910729  MEMB      91              0.0000000000
     12045        97  POPC      C15           -23.3225734761       -1.2408623119      -19.0312671781  MEMB      91              0.0000000000
     12046        97  POPC      H15A          -23.6464143659       -0.5518589822      -19.7972969311  MEMB      91              0.0000000000
     12047        97  POPC      H15B          -22.5389099483       -0.7600843228      -18.4645888260  MEMB      91              0.0000000000
     12048        97  POPC      H15C          -24.1373502589       -1.4001312632      -18.3404905955  MEMB      91              0.0000000000
     12049        97  POPC      C11           -21.4412917008       -4.6239163600      -18.5284567555  MEMB      91              0.0000000000
     12050        97  POPC      H11A          -20.9284866691       -5.0438084489      -17.6368050330  MEMB      91              0.0000000000
     12051        97  POPC      H11B          -20.5789088160       -4.4822115890      -19.2144133745  MEMB      91              0.0000000000
     12052        97  POPC      P             -22.7916564516       -6.9356276211      -18.5612086867  MEMB      91              0.0000000000
     12053        97  POPC      O13           -21.5796662453       -7.8074047564      -18.4937207357  MEMB      91              0.0000000000
     12054        97  POPC      O14           -24.0232810836       -7.3719197758      -19.2602932899  MEMB      91              0.0000000000
     12055        97  POPC      O12           -22.3708363300       -5.5115615911      -19.2446398182  MEMB      91              0.0000000000
     12056        97  POPC      O11           -23.1890098552       -6.4215921449      -17.1919197191  MEMB      91              0.0000000000
     12057        97  POPC      C1            -24.5125977106       -5.9384833653      -16.9266619280  MEMB      91              0.0000000000
     12058        97  POPC      HA            -25.3259033550       -6.6670106988      -17.1318516971  MEMB      91              0.0000000000
     12059        97  POPC      HB            -24.6903151935       -5.0415547527      -17.5577376074  MEMB      91              0.0000000000
     12060        97  POPC      C2            -24.7372540893       -5.4707013652      -15.4575598123  MEMB      91              0.0000000000
     12061        97  POPC      HS            -25.8026442425       -5.3091026053      -15.1870966437  MEMB      91              0.0000000000
     12062        97  POPC      O21           -24.0843472870       -4.1742642040      -15.3772791463  MEMB      91              0.0000000000
     12063        97  POPC      C21           -24.4173943131       -3.4078951912      -14.4409828338  MEMB      91              0.0000000000
     12064        97  POPC      O22           -25.4621436751       -3.5278557078      -13.8106042648  MEMB      91              0.0000000000
     12065        97  POPC      C22           -23.4804066652       -2.2578171835      -14.3794718728  MEMB      91              0.0000000000
     12066        97  POPC      H2R           -23.9000584861       -1.3096887451      -14.7785532870  MEMB      91              0.0000000000
     12067        97  POPC      H2S           -22.6378247150       -2.5396569305      -15.0465126287  MEMB      91              0.0000000000
     12068        97  POPC      C3            -24.1920946878       -6.3958099981      -14.4143587136  MEMB      91              0.0000000000
     12069        97  POPC      HX            -24.5019719553       -7.4326227385      -14.6659861188  MEMB      91              0.0000000000
     12070        97  POPC      HY            -24.5832847367       -6.1015727683      -13.4170042566  MEMB      91              0.0000000000
     12071        97  POPC      O31           -22.7943601052       -6.3831431056      -14.3764444956  MEMB      91              0.0000000000
     12072        97  POPC      C31           -22.3087210383       -6.7802489717      -13.2088123108  MEMB      91              0.0000000000
     12073        97  POPC      O32           -22.7764150017       -7.3550044764      -12.2835386004  MEMB      91              0.0000000000
     12074        97  POPC      C32           -20.8456640274       -6.3987891771      -13.1653751517  MEMB      91              0.0000000000
     12075        97  POPC      H2X           -20.7702810796       -5.3665483096      -13.5692529001  MEMB      91              0.0000000000
     12076        97  POPC      H2Y           -20.3093999167       -7.1445081688      -13.7903913344  MEMB      91              0.0000000000
     12077        97  POPC      C23           -23.0353750317       -2.0439813179      -12.9372151396  MEMB      91              0.0000000000
     12078        97  POPC      H3R           -22.1906789662       -1.3327335817      -13.0594289492  MEMB      91              0.0000000000
     12079        97  POPC      H3S           -22.7702565699       -3.0139895050      -12.4648622844  MEMB      91              0.0000000000
     12080        97  POPC      C24           -24.0495949189       -1.4035610014      -11.9807407917  MEMB      91              0.0000000000
     12081        97  POPC      H4R           -25.0159328599       -1.9479227657      -12.0454115952  MEMB      91              0.0000000000
     12082        97  POPC      H4S           -24.3821450770       -0.3752646363      -12.2383027253  MEMB      91              0.0000000000
     12083        97  POPC      C25           -23.4950849189       -1.4778907291      -10.5626315693  MEMB      91              0.0000000000
     12084        97  POPC      H5R           -22.4530929093       -1.0927083899      -10.5770651313  MEMB      91              0.0000000000
     12085        97  POPC      H5S           -23.4157299836       -2.5833034905      -10.4846163288  MEMB      91              0.0000000000
     12086        97  POPC      C26           -24.4895073718       -0.9283205284       -9.5453222466  MEMB      91              0.0000000000
     12087        97  POPC      H6R           -25.5298717150       -1.2833675348       -9.7062706535  MEMB      91              0.0000000000
     12088        97  POPC      H6S           -24.3937893929        0.1742144444       -9.6431779253  MEMB      91              0.0000000000
     12089        97  POPC      C27           -24.1425308164       -1.4245917915       -8.0926093912  MEMB      91              0.0000000000
     12090        97  POPC      H7R           -23.1420271205       -1.0147220974       -7.8370310027  MEMB      91              0.0000000000
     12091        97  POPC      H7S           -24.0011221507       -2.5262477462       -8.0665565048  MEMB      91              0.0000000000
     12092        97  POPC      C28           -25.1495221956       -1.0675017991       -7.0801753624  MEMB      91              0.0000000000
     12093        97  POPC      H8R           -26.2215790028       -1.1816913749       -7.3484583923  MEMB      91              0.0000000000
     12094        97  POPC      H8S           -25.0900088252        0.0397935897       -7.0117927436  MEMB      91              0.0000000000
     12095        97  POPC      C29           -24.9255465590       -1.6114907356       -5.7106273767  MEMB      91              0.0000000000
     12096        97  POPC      H91           -24.6243940557       -0.8791788459       -4.9470655291  MEMB      91              0.0000000000
     12097        97  POPC      C210          -25.1794891704       -2.8845912573       -5.2082667013  MEMB      91              0.0000000000
     12098        97  POPC      H101          -25.0799463301       -3.1656317521       -4.1494430336  MEMB      91              0.0000000000
     12099        97  POPC      C211          -25.7175693929       -4.0653085846       -5.9999347185  MEMB      91              0.0000000000
     12100        97  POPC      H11R          -26.0638063502       -3.8898666287       -7.0409253075  MEMB      91              0.0000000000
     12101        97  POPC      H11S          -26.5642942079       -4.5346567712       -5.4548747386  MEMB      91              0.0000000000
     12102        97  POPC      C212          -24.6746755543       -5.1720471726       -5.9746042145  MEMB      91              0.0000000000
     12103        97  POPC      H12R          -23.7301349975       -4.6281058960       -6.1897601825  MEMB      91              0.0000000000
     12104        97  POPC      H12S          -24.8889776707       -5.8203589746       -6.8510100938  MEMB      91              0.0000000000
     12105        97  POPC      C213          -24.6711178261       -6.2151099043       -4.8031109223  MEMB      91              0.0000000000
     12106        97  POPC      H13R          -24.3751056135       -5.6440916689       -3.8972209893  MEMB      91              0.0000000000
     12107        97  POPC      H13S          -23.9895166056       -7.0336835129       -5.1188293253  MEMB      91              0.0000000000
     12108        97  POPC      C214          -25.9548442039       -6.9980895439       -4.5995503417  MEMB      91              0.0000000000
     12109        97  POPC      H14R          -26.0037702749       -7.7632876704       -5.4035393809  MEMB      91              0.0000000000
     12110        97  POPC      H14S          -26.8110694667       -6.3568310695       -4.8995284230  MEMB      91              0.0000000000
     12111        97  POPC      C215          -26.0768857714       -7.6890235631       -3.1789932360  MEMB      91              0.0000000000
     12112        97  POPC      H15R          -25.1611305465       -8.3180786620       -3.1807596504  MEMB      91              0.0000000000
     12113        97  POPC      H15S          -26.9519171833       -8.3318207678       -2.9435076323  MEMB      91              0.0000000000
     12114        97  POPC      C216          -25.9208435333       -6.7798821639       -2.0066206650  MEMB      91              0.0000000000
     12115        97  POPC      H16R          -25.3823644571       -5.8414357177       -2.2589687855  MEMB      91              0.0000000000
     12116        97  POPC      H16S          -25.4246750661       -7.2872835654       -1.1518216260  MEMB      91              0.0000000000
     12117        97  POPC      C217          -27.3037854568       -6.1929453497       -1.5328883501  MEMB      91              0.0000000000
     12118        97  POPC      H17R          -27.1954351453       -5.5896773615       -0.6062537368  MEMB      91              0.0000000000
     12119        97  POPC      H17S          -27.7932972639       -7.1595828994       -1.2873050725  MEMB      91              0.0000000000
     12120        97  POPC      C218          -28.1046914901       -5.3148749360       -2.5442632035  MEMB      91              0.0000000000
     12121        97  POPC      H18R          -27.4433362207       -4.5588142349       -3.0189238986  MEMB      91              0.0000000000
     12122        97  POPC      H18S          -28.9417819109       -4.8010665402       -2.0250310595  MEMB      91              0.0000000000
     12123        97  POPC      H18T          -28.4381449166       -5.8047697404       -3.4840149988  MEMB      91              0.0000000000
     12124        97  POPC      C33           -20.2769837860       -6.4896928379      -11.7398330177  MEMB      91              0.0000000000
     12125        97  POPC      H3X           -19.1764500107       -6.4325705983      -11.8808407430  MEMB      91              0.0000000000
     12126        97  POPC      H3Y           -20.5526938481       -7.4116980281      -11.1846647857  MEMB      91              0.0000000000
     12127        97  POPC      C34           -20.7445198436       -5.2293411987      -10.8602008549  MEMB      91              0.0000000000
     12128        97  POPC      H4X           -21.8238174895       -4.9846513693      -10.9580005882  MEMB      91              0.0000000000
     12129        97  POPC      H4Y           -20.1708246297       -4.3433544525      -11.2069314101  MEMB      91              0.0000000000
     12130        97  POPC      C35           -20.3465825684       -5.4341606875       -9.3533858081  MEMB      91              0.0000000000
     12131        97  POPC      H5X           -19.2370887259       -5.4787879609       -9.3166033318  MEMB      91              0.0000000000
     12132        97  POPC      H5Y           -20.7803657441       -6.3365317761       -8.8718467035  MEMB      91              0.0000000000
     12133        97  POPC      C36           -20.7834412058       -4.2253995876       -8.4215332691  MEMB      91              0.0000000000
     12134        97  POPC      H6X           -21.8151014070       -4.0072884807       -8.7714277680  MEMB      91              0.0000000000
     12135        97  POPC      H6Y           -20.2659919476       -3.2850006734       -8.7082688773  MEMB      91              0.0000000000
     12136        97  POPC      C37           -20.7511970898       -4.4515937449       -6.8914460435  MEMB      91              0.0000000000
     12137        97  POPC      H7X           -19.7032248973       -4.7039141893       -6.6223557932  MEMB      91              0.0000000000
     12138        97  POPC      H7Y           -21.4069434204       -5.2251710878       -6.4376887437  MEMB      91              0.0000000000
     12139        97  POPC      C38           -20.8920020874       -3.1478778974       -6.0599721386  MEMB      91              0.0000000000
     12140        97  POPC      H8X           -21.7503304056       -2.5215570182       -6.3844960295  MEMB      91              0.0000000000
     12141        97  POPC      H8Y           -19.8961540051       -2.6696919605       -6.1780645057  MEMB      91              0.0000000000
     12142        97  POPC      C39           -21.1200589267       -3.3703374524       -4.5718098577  MEMB      91              0.0000000000
     12143        97  POPC      H9X           -20.1935887485       -3.8509691145       -4.1910643986  MEMB      91              0.0000000000
     12144        97  POPC      H9Y           -21.9821745178       -4.0323565151       -4.3420095353  MEMB      91              0.0000000000
     12145        97  POPC      C310          -21.3175396740       -2.1468803885       -3.7332792042  MEMB      91              0.0000000000
     12146        97  POPC      H10X          -22.3887622113       -1.8540518303       -3.7008025221  MEMB      91              0.0000000000
     12147        97  POPC      H10Y          -20.7435024011       -1.2741330454       -4.1115836864  MEMB      91              0.0000000000
     12148        97  POPC      C311          -20.8015565167       -2.3615911891       -2.2469863848  MEMB      91              0.0000000000
     12149        97  POPC      H11X          -20.8481729209       -1.3692362815       -1.7496143031  MEMB      91              0.0000000000
     12150        97  POPC      H11Y          -19.7555171107       -2.7182272672       -2.1332615336  MEMB      91              0.0000000000
     12151        97  POPC      C312          -21.7898247463       -3.2457211559       -1.5037889172  MEMB      91              0.0000000000
     12152        97  POPC      H12X          -22.7804087620       -3.0861970786       -1.9808806275  MEMB      91              0.0000000000
     12153        97  POPC      H12Y          -21.7769565747       -2.9209581407       -0.4413926097  MEMB      91              0.0000000000
     12154        97  POPC      C313          -21.4200888722       -4.7200428161       -1.5603651633  MEMB      91              0.0000000000
     12155        97  POPC      H13X          -21.0856859903       -5.0562046876       -2.5650981771  MEMB      91              0.0000000000
     12156        97  POPC      H13Y          -22.2711099676       -5.3952434947       -1.3275802120  MEMB      91              0.0000000000
     12157        97  POPC      C314          -20.1806777695       -4.9813592522       -0.7513238967  MEMB      91              0.0000000000
     12158        97  POPC      H14X          -20.0936895504       -4.4678956666        0.2300571641  MEMB      91              0.0000000000
     12159        97  POPC      H14Y          -19.2377682936       -4.7412291636       -1.2875874231  MEMB      91              0.0000000000
     12160        97  POPC      C315          -19.9014921964       -6.4881924490       -0.5060128871  MEMB      91              0.0000000000
     12161        97  POPC      H15X          -20.8488065495       -6.8803035860       -0.0780362046  MEMB      91              0.0000000000
     12162        97  POPC      H15Y          -19.0479370305       -6.6076114113        0.1950590283  MEMB      91              0.0000000000
     12163        97  POPC      C316          -19.7168034837       -7.2688606541       -1.8072491581  MEMB      91              0.0000000000
     12164        97  POPC      H16X          -19.5849236055       -8.3619361777       -1.6585394003  MEMB      91              0.0000000000
     12165        97  POPC      H16Y          -18.9154804806       -6.8345829856       -2.4425486857  MEMB      91              0.0000000000
     12166        97  POPC      H16Z          -20.5971457648       -7.1471356903       -2.4739578988  MEMB      91              0.0000000000
     12167        98  POPC      N              20.0176795804       11.3406027073      -19.7866014076  MEMB      92              0.0000000000
     12168        98  POPC      C12            20.9885519119       10.3721700893      -20.3810240871  MEMB      92              0.0000000000
     12169        98  POPC      H12A           20.8911128683       10.5158104091      -21.4469850789  MEMB      92              0.0000000000
     12170        98  POPC      H12B           20.5743687438        9.3887894904      -20.2142462516  MEMB      92              0.0000000000
     12171        98  POPC      C13            19.9544397182       11.1056583062      -18.3004327844  MEMB      92              0.0000000000
     12172        98  POPC      H13A           19.2438066497       11.7684136083      -17.8290984138  MEMB      92              0.0000000000
     12173        98  POPC      H13B           19.6231432529       10.0797826031      -18.2354583903  MEMB      92              0.0000000000
     12174        98  POPC      H13C           20.9395215326       11.2120538034      -17.8706727038  MEMB      92              0.0000000000
     12175        98  POPC      C14            20.5645185972       12.6173972714      -19.9855144246  MEMB      92              0.0000000000
     12176        98  POPC      H14A           21.5733958067       12.6438060472      -19.6009763718  MEMB      92              0.0000000000
     12177        98  POPC      H14B           20.4736094362       12.8782585275      -21.0295865920  MEMB      92              0.0000000000
     12178        98  POPC      H14C           19.9272225160       13.3237039964      -19.4742569359  MEMB      92              0.0000000000
     12179        98  POPC      C15            18.5599444793       11.3178867708      -20.2710552820  MEMB      92              0.0000000000
     12180        98  POPC      H15A           18.6245670178       11.4785716586      -21.3370779779  MEMB      92              0.0000000000
     12181        98  POPC      H15B           17.9477512048       12.0703443617      -19.7962636577  MEMB      92              0.0000000000
     12182        98  POPC      H15C           18.0864506095       10.4005598460      -19.9536998067  MEMB      92              0.0000000000
     12183        98  POPC      C11            22.5196367097       10.3954893006      -20.0783310072  MEMB      92              0.0000000000
     12184        98  POPC      H11A           22.9472268320       11.4179267287      -20.1564937920  MEMB      92              0.0000000000
     12185        98  POPC      H11B           23.0514086190        9.7671441816      -20.8244691278  MEMB      92              0.0000000000
     12186        98  POPC      P              24.0685126082        9.8554644786      -18.0204809088  MEMB      92              0.0000000000
     12187        98  POPC      O13            25.1968439786        9.2677515297      -18.7772161429  MEMB      92              0.0000000000
     12188        98  POPC      O14            23.7303669515        9.2184194121      -16.7465181443  MEMB      92              0.0000000000
     12189        98  POPC      O12            22.7833630345        9.7639941435      -18.8480191501  MEMB      92              0.0000000000
     12190        98  POPC      O11            24.3335954363       11.3952665892      -17.8048066664  MEMB      92              0.0000000000
     12191        98  POPC      C1             23.2952567698       12.1914643506      -17.2477634248  MEMB      92              0.0000000000
     12192        98  POPC      HA             22.4115908684       11.5836805294      -16.9578419648  MEMB      92              0.0000000000
     12193        98  POPC      HB             22.9604931716       12.9573967096      -17.9796117409  MEMB      92              0.0000000000
     12194        98  POPC      C2             23.6462187426       12.8638135496      -15.8462528539  MEMB      92              0.0000000000
     12195        98  POPC      HS             24.4475346622       13.6149093828      -16.0137914516  MEMB      92              0.0000000000
     12196        98  POPC      O21            23.9840715956       11.8286894221      -14.8840558661  MEMB      92              0.0000000000
     12197        98  POPC      C21            25.2608812547       11.3338286343      -14.9257102734  MEMB      92              0.0000000000
     12198        98  POPC      O22            26.1914534000       11.8217873409      -15.5475271210  MEMB      92              0.0000000000
     12199        98  POPC      C22            25.3639985232       10.1388388958      -13.9743683543  MEMB      92              0.0000000000
     12200        98  POPC      H2R            25.4689218425        9.3572692573      -14.7569671987  MEMB      92              0.0000000000
     12201        98  POPC      H2S            24.4372295713        9.9195051636      -13.4022557891  MEMB      92              0.0000000000
     12202        98  POPC      C3             22.4147184365       13.6521274313      -15.3483973194  MEMB      92              0.0000000000
     12203        98  POPC      HX             21.9959722007       14.1537976657      -16.2468959086  MEMB      92              0.0000000000
     12204        98  POPC      HY             22.7379665109       14.4952784395      -14.7011506928  MEMB      92              0.0000000000
     12205        98  POPC      O31            21.5026691331       12.6677557293      -14.8278871805  MEMB      92              0.0000000000
     12206        98  POPC      C31            21.2018903017       12.8245461386      -13.6026102804  MEMB      92              0.0000000000
     12207        98  POPC      O32            21.6881038079       13.6558700977      -12.8291356381  MEMB      92              0.0000000000
     12208        98  POPC      C32            20.2662361902       11.6750722732      -13.2307789321  MEMB      92              0.0000000000
     12209        98  POPC      H2X            20.7269872356       10.6787082422      -13.4019163484  MEMB      92              0.0000000000
     12210        98  POPC      H2Y            19.3616836656       11.7072319496      -13.8750391622  MEMB      92              0.0000000000
     12211        98  POPC      C23            26.6776958326       10.1447878477      -13.2247670396  MEMB      92              0.0000000000
     12212        98  POPC      H3R            27.3416711919       10.9002608127      -13.6966975267  MEMB      92              0.0000000000
     12213        98  POPC      H3S            27.1172211590        9.1245409471      -13.2400987559  MEMB      92              0.0000000000
     12214        98  POPC      C24            26.5265668939       10.3968121709      -11.6877260591  MEMB      92              0.0000000000
     12215        98  POPC      H4R            27.5189603948       10.3650817019      -11.1892588351  MEMB      92              0.0000000000
     12216        98  POPC      H4S            26.0044100259        9.5973698974      -11.1197780433  MEMB      92              0.0000000000
     12217        98  POPC      C25            25.9494185133       11.8346061697      -11.3524199877  MEMB      92              0.0000000000
     12218        98  POPC      H5R            24.8798871105       11.9539494555      -11.6284289083  MEMB      92              0.0000000000
     12219        98  POPC      H5S            26.4591634425       12.6523028416      -11.9054600785  MEMB      92              0.0000000000
     12220        98  POPC      C26            26.0418044011       12.2438633071       -9.8613324766  MEMB      92              0.0000000000
     12221        98  POPC      H6R            27.1090942473       12.2547684503       -9.5529580559  MEMB      92              0.0000000000
     12222        98  POPC      H6S            25.6785654315       11.3926920455       -9.2466086317  MEMB      92              0.0000000000
     12223        98  POPC      C27            25.3278566852       13.6023079078       -9.5551896495  MEMB      92              0.0000000000
     12224        98  POPC      H7R            24.5958495557       13.7159234140      -10.3831869661  MEMB      92              0.0000000000
     12225        98  POPC      H7S            26.1393005702       14.3571416714       -9.6333267001  MEMB      92              0.0000000000
     12226        98  POPC      C28            24.6282638723       13.7704989355       -8.1754278873  MEMB      92              0.0000000000
     12227        98  POPC      H8R            25.1796795628       13.2384875532       -7.3709252890  MEMB      92              0.0000000000
     12228        98  POPC      H8S            23.5792573998       13.4089879637       -8.2321376377  MEMB      92              0.0000000000
     12229        98  POPC      C29            24.5515245393       15.2456499918       -7.8129414537  MEMB      92              0.0000000000
     12230        98  POPC      H91            24.6375541713       15.8973315424       -8.6949334199  MEMB      92              0.0000000000
     12231        98  POPC      C210           24.4492545317       15.8080807910       -6.5777030214  MEMB      92              0.0000000000
     12232        98  POPC      H101           24.2860959386       16.8716265065       -6.3491228343  MEMB      92              0.0000000000
     12233        98  POPC      C211           24.3537090408       15.0059631534       -5.3212294938  MEMB      92              0.0000000000
     12234        98  POPC      H11R           24.8824183332       15.4778691840       -4.4656056340  MEMB      92              0.0000000000
     12235        98  POPC      H11S           25.0195135224       14.1461031927       -5.5485311052  MEMB      92              0.0000000000
     12236        98  POPC      C212           23.0456943417       14.4757841980       -4.7999825804  MEMB      92              0.0000000000
     12237        98  POPC      H12R           22.9221537762       13.4633321508       -5.2404358105  MEMB      92              0.0000000000
     12238        98  POPC      H12S           22.1927247980       15.1391897825       -5.0581622029  MEMB      92              0.0000000000
     12239        98  POPC      C213           22.8111151529       14.3411980182       -3.3342451729  MEMB      92              0.0000000000
     12240        98  POPC      H13R           23.6210038062       13.7729310860       -2.8288005306  MEMB      92              0.0000000000
     12241        98  POPC      H13S           21.8698328070       13.7901266074       -3.1229900215  MEMB      92              0.0000000000
     12242        98  POPC      C214           22.7784155985       15.7310343148       -2.6124948012  MEMB      92              0.0000000000
     12243        98  POPC      H14R           22.4644050916       16.5124000070       -3.3371912171  MEMB      92              0.0000000000
     12244        98  POPC      H14S           23.7953984021       16.0000024698       -2.2551111751  MEMB      92              0.0000000000
     12245        98  POPC      C215           21.7491293020       15.8966585734       -1.4326464845  MEMB      92              0.0000000000
     12246        98  POPC      H15R           20.7748607796       15.4552511779       -1.7331152860  MEMB      92              0.0000000000
     12247        98  POPC      H15S           21.4442589097       16.9519299638       -1.2659800960  MEMB      92              0.0000000000
     12248        98  POPC      C216           22.1863522199       15.2354740187       -0.0706440850  MEMB      92              0.0000000000
     12249        98  POPC      H16R           23.0887217971       15.8128172186        0.2238472519  MEMB      92              0.0000000000
     12250        98  POPC      H16S           22.5828207630       14.2080376983       -0.2172994658  MEMB      92              0.0000000000
     12251        98  POPC      C217           21.3315349312       15.3042217192        1.2065297490  MEMB      92              0.0000000000
     12252        98  POPC      H17R           21.5633665949       16.3230951110        1.5839842603  MEMB      92              0.0000000000
     12253        98  POPC      H17S           21.6692217606       14.5401894593        1.9390213958  MEMB      92              0.0000000000
     12254        98  POPC      C218           19.8318596575       15.1089627629        1.1333705937  MEMB      92              0.0000000000
     12255        98  POPC      H18R           19.3886428919       15.6791537973        0.2891180026  MEMB      92              0.0000000000
     12256        98  POPC      H18S           19.2489859980       15.4422578831        2.0185228803  MEMB      92              0.0000000000
     12257        98  POPC      H18T           19.6669393064       14.0186248980        0.9981475699  MEMB      92              0.0000000000
     12258        98  POPC      C33            19.8141265633       11.7775413602      -11.8121835300  MEMB      92              0.0000000000
     12259        98  POPC      H3X            19.1126135935       10.9477557881      -11.5805449551  MEMB      92              0.0000000000
     12260        98  POPC      H3Y            19.2415969715       12.7214965570      -11.6877669131  MEMB      92              0.0000000000
     12261        98  POPC      C34            20.9534171181       11.5736544801      -10.7841571059  MEMB      92              0.0000000000
     12262        98  POPC      H4X            20.4759611218       11.9128057921       -9.8400531135  MEMB      92              0.0000000000
     12263        98  POPC      H4Y            21.8277322003       12.2556989364      -10.8527821690  MEMB      92              0.0000000000
     12264        98  POPC      C35            21.5316501964       10.1541962494      -10.8006772409  MEMB      92              0.0000000000
     12265        98  POPC      H5X            22.1637300824        9.8232776018      -11.6523164088  MEMB      92              0.0000000000
     12266        98  POPC      H5Y            20.7414473584        9.3809898905      -10.9104614640  MEMB      92              0.0000000000
     12267        98  POPC      C36            22.4320684928        9.9431522525       -9.5401519739  MEMB      92              0.0000000000
     12268        98  POPC      H6X            21.9130793649       10.4449538385       -8.6956604942  MEMB      92              0.0000000000
     12269        98  POPC      H6Y            23.4029045046       10.4549853503       -9.7128520944  MEMB      92              0.0000000000
     12270        98  POPC      C37            22.5258302605        8.4751929870       -9.1419209943  MEMB      92              0.0000000000
     12271        98  POPC      H7X            22.5534323887        7.8590383688      -10.0659946960  MEMB      92              0.0000000000
     12272        98  POPC      H7Y            21.6142220995        8.3143269358       -8.5275801093  MEMB      92              0.0000000000
     12273        98  POPC      C38            23.7165746745        7.9901398820       -8.2234165592  MEMB      92              0.0000000000
     12274        98  POPC      H8X            24.6358874916        8.0948250386       -8.8384177273  MEMB      92              0.0000000000
     12275        98  POPC      H8Y            23.6888539786        6.9024078666       -7.9989355491  MEMB      92              0.0000000000
     12276        98  POPC      C39            23.8181112079        8.8527963371       -6.9753988583  MEMB      92              0.0000000000
     12277        98  POPC      H9X            24.2313907378        9.8640200529       -7.1777541148  MEMB      92              0.0000000000
     12278        98  POPC      H9Y            24.6716065848        8.3770589957       -6.4466824120  MEMB      92              0.0000000000
     12279        98  POPC      C310           22.5489567158        9.0004972886       -6.0805330555  MEMB      92              0.0000000000
     12280        98  POPC      H10X           22.3231227122        7.9896489412       -5.6786552925  MEMB      92              0.0000000000
     12281        98  POPC      H10Y           21.6863981069        9.4489683882       -6.6182944444  MEMB      92              0.0000000000
     12282        98  POPC      C311           22.8104289803       10.0129740747       -4.9365283567  MEMB      92              0.0000000000
     12283        98  POPC      H11X           22.8999567491       11.0562719510       -5.3077902975  MEMB      92              0.0000000000
     12284        98  POPC      H11Y           23.7546256127        9.6590416192       -4.4701106229  MEMB      92              0.0000000000
     12285        98  POPC      C312           21.7929888518       10.1392570948       -3.7621303563  MEMB      92              0.0000000000
     12286        98  POPC      H12X           20.8016198664       10.0607042976       -4.2574465214  MEMB      92              0.0000000000
     12287        98  POPC      H12Y           21.8907018261       11.1278718566       -3.2647234512  MEMB      92              0.0000000000
     12288        98  POPC      C313           21.8570047832        9.0526085218       -2.7026058616  MEMB      92              0.0000000000
     12289        98  POPC      H13X           22.7555506542        9.0297438979       -2.0496028134  MEMB      92              0.0000000000
     12290        98  POPC      H13Y           21.7705356846        8.0571018538       -3.1882092960  MEMB      92              0.0000000000
     12291        98  POPC      C314           20.6798301909        9.1030147987       -1.7706020539  MEMB      92              0.0000000000
     12292        98  POPC      H14X           20.6420251751        8.1577913697       -1.1879835494  MEMB      92              0.0000000000
     12293        98  POPC      H14Y           19.7964881305        9.0358846661       -2.4410661567  MEMB      92              0.0000000000
     12294        98  POPC      C315           20.6979576905       10.3257365709       -0.7706921290  MEMB      92              0.0000000000
     12295        98  POPC      H15X           21.0640249592       11.2788663624       -1.2087095219  MEMB      92              0.0000000000
     12296        98  POPC      H15Y           21.4628753121       10.1980659396        0.0248730222  MEMB      92              0.0000000000
     12297        98  POPC      C316           19.3791931759       10.5351456372       -0.0110282352  MEMB      92              0.0000000000
     12298        98  POPC      H16X           19.2651799456        9.8997362373        0.8931710395  MEMB      92              0.0000000000
     12299        98  POPC      H16Y           18.4637077350       10.2681588335       -0.5810510570  MEMB      92              0.0000000000
     12300        98  POPC      H16Z           19.3771586530       11.6060938895        0.2845837322  MEMB      92              0.0000000000
     12301        99  POPC      N             -12.6786234369      -22.4873181639      -17.5511954229  MEMB      93              0.0000000000
     12302        99  POPC      C12           -12.2424292080      -21.1670646451      -18.1637677411  MEMB      93              0.0000000000
     12303        99  POPC      H12A          -11.2977834950      -20.8896525010      -17.7198229808  MEMB      93              0.0000000000
     12304        99  POPC      H12B          -12.9773672030      -20.4640647484      -17.8003707660  MEMB      93              0.0000000000
     12305        99  POPC      C13           -13.9005140404      -23.0186287311      -18.3547343395  MEMB      93              0.0000000000
     12306        99  POPC      H13A          -13.8202789052      -24.0956283513      -18.3605911592  MEMB      93              0.0000000000
     12307        99  POPC      H13B          -14.7451879524      -22.5775182538      -17.8464550136  MEMB      93              0.0000000000
     12308        99  POPC      H13C          -13.8783520020      -22.7464870345      -19.3996495536  MEMB      93              0.0000000000
     12309        99  POPC      C14           -11.5349226936      -23.4959588809      -17.6034189558  MEMB      93              0.0000000000
     12310        99  POPC      H14A          -11.4053206515      -23.9418780494      -18.5784878967  MEMB      93              0.0000000000
     12311        99  POPC      H14B          -10.6020921947      -22.9866736164      -17.4114398266  MEMB      93              0.0000000000
     12312        99  POPC      H14C          -11.6877374805      -24.3674621288      -16.9841214834  MEMB      93              0.0000000000
     12313        99  POPC      C15           -13.0306335807      -22.2404446405      -16.0773957366  MEMB      93              0.0000000000
     12314        99  POPC      H15A          -13.4144248972      -23.1828000434      -15.7153590005  MEMB      93              0.0000000000
     12315        99  POPC      H15B          -13.6636658112      -21.3722833264      -15.9680063146  MEMB      93              0.0000000000
     12316        99  POPC      H15C          -12.1200091399      -21.9881102127      -15.5544325781  MEMB      93              0.0000000000
     12317        99  POPC      C11           -11.8876276106      -21.0822594402      -19.6665902977  MEMB      93              0.0000000000
     12318        99  POPC      H11A          -11.5136997275      -20.0461882399      -19.8116952226  MEMB      93              0.0000000000
     12319        99  POPC      H11B          -12.7475741449      -21.0837700705      -20.3700181395  MEMB      93              0.0000000000
     12320        99  POPC      P              -9.4846174789      -21.6958573869      -20.4077525489  MEMB      93              0.0000000000
     12321        99  POPC      O13            -9.3590585521      -20.7624639126      -21.5976394456  MEMB      93              0.0000000000
     12322        99  POPC      O14            -8.6651158038      -22.9059869498      -20.3709910918  MEMB      93              0.0000000000
     12323        99  POPC      O12           -11.0140857588      -22.0631490991      -20.1788932125  MEMB      93              0.0000000000
     12324        99  POPC      O11            -9.1912950169      -20.9607690063      -19.0276212346  MEMB      93              0.0000000000
     12325        99  POPC      C1             -8.0638216653      -20.1915836414      -19.0469066819  MEMB      93              0.0000000000
     12326        99  POPC      HA             -8.2790284811      -19.2365917403      -19.5722614123  MEMB      93              0.0000000000
     12327        99  POPC      HB             -7.1782361283      -20.7621076368      -19.3998396561  MEMB      93              0.0000000000
     12328        99  POPC      C2             -7.7335716480      -19.8246832756      -17.6385230753  MEMB      93              0.0000000000
     12329        99  POPC      HS             -6.6424415294      -19.7024168946      -17.4687968120  MEMB      93              0.0000000000
     12330        99  POPC      O21            -8.1350730293      -20.8320642830      -16.6863464125  MEMB      93              0.0000000000
     12331        99  POPC      C21            -7.2953946753      -21.8357257691      -16.3689854089  MEMB      93              0.0000000000
     12332        99  POPC      O22            -6.2315334294      -22.0860971509      -16.9727212419  MEMB      93              0.0000000000
     12333        99  POPC      C22            -7.8285630341      -22.6193863910      -15.2141925482  MEMB      93              0.0000000000
     12334        99  POPC      H2R            -8.4027701274      -23.5272922443      -15.4975904485  MEMB      93              0.0000000000
     12335        99  POPC      H2S            -8.4650513127      -21.9622038188      -14.5838634228  MEMB      93              0.0000000000
     12336        99  POPC      C3             -8.3076826552      -18.4709305183      -17.2021065602  MEMB      93              0.0000000000
     12337        99  POPC      HX             -8.1251711364      -17.7488941462      -18.0265300512  MEMB      93              0.0000000000
     12338        99  POPC      HY             -7.8472737338      -18.0619384877      -16.2774066968  MEMB      93              0.0000000000
     12339        99  POPC      O31            -9.7288808370      -18.4641494883      -16.9609242511  MEMB      93              0.0000000000
     12340        99  POPC      C31           -10.2297034011      -17.2730078169      -16.5454651178  MEMB      93              0.0000000000
     12341        99  POPC      O32            -9.5485175513      -16.3318978747      -16.2274572337  MEMB      93              0.0000000000
     12342        99  POPC      C32           -11.8011125180      -17.3956046835      -16.3351243174  MEMB      93              0.0000000000
     12343        99  POPC      H2X           -12.2148836918      -18.1292912642      -17.0595679795  MEMB      93              0.0000000000
     12344        99  POPC      H2Y           -12.3622373381      -16.4509809651      -16.4998842904  MEMB      93              0.0000000000
     12345        99  POPC      C23            -6.6846958290      -23.1584912061      -14.2448094591  MEMB      93              0.0000000000
     12346        99  POPC      H3R            -6.1797674145      -22.2660667327      -13.8170866578  MEMB      93              0.0000000000
     12347        99  POPC      H3S            -5.8846496715      -23.7771420568      -14.7047203206  MEMB      93              0.0000000000
     12348        99  POPC      C24            -7.1413464032      -23.9929447819      -13.0740830407  MEMB      93              0.0000000000
     12349        99  POPC      H4R            -6.2597226912      -24.1585980024      -12.4186292257  MEMB      93              0.0000000000
     12350        99  POPC      H4S            -7.5993749344      -24.9774275203      -13.3092943564  MEMB      93              0.0000000000
     12351        99  POPC      C25            -8.0529987195      -23.3357785055      -12.0915909917  MEMB      93              0.0000000000
     12352        99  POPC      H5R            -9.0866888612      -23.3348471370      -12.4987825573  MEMB      93              0.0000000000
     12353        99  POPC      H5S            -7.6502616103      -22.3523319129      -11.7676209921  MEMB      93              0.0000000000
     12354        99  POPC      C26            -8.2172694651      -24.1389282623      -10.8057833607  MEMB      93              0.0000000000
     12355        99  POPC      H6R            -7.2362738776      -24.5872659013      -10.5393952721  MEMB      93              0.0000000000
     12356        99  POPC      H6S            -9.0314933457      -24.8839557458      -10.9334335924  MEMB      93              0.0000000000
     12357        99  POPC      C27            -8.4070215840      -23.2559318906       -9.5692338406  MEMB      93              0.0000000000
     12358        99  POPC      H7R            -9.0854939179      -22.4182707256       -9.8381588040  MEMB      93              0.0000000000
     12359        99  POPC      H7S            -7.4940527116      -22.8413300096       -9.0907845519  MEMB      93              0.0000000000
     12360        99  POPC      C28            -9.1526345861      -23.9993562703       -8.4170609531  MEMB      93              0.0000000000
     12361        99  POPC      H8R           -10.1548666426      -24.3260086735       -8.7679874736  MEMB      93              0.0000000000
     12362        99  POPC      H8S            -9.3641377587      -23.2162028932       -7.6579446201  MEMB      93              0.0000000000
     12363        99  POPC      C29            -8.4161716602      -25.1014145188       -7.6739754583  MEMB      93              0.0000000000
     12364        99  POPC      H91            -8.7778831933      -26.0803250542       -8.0216807195  MEMB      93              0.0000000000
     12365        99  POPC      C210           -7.4472343249      -25.0229103462       -6.6856404380  MEMB      93              0.0000000000
     12366        99  POPC      H101           -7.1095413950      -25.9777642935       -6.2564360823  MEMB      93              0.0000000000
     12367        99  POPC      C211           -6.9028696482      -23.7143269073       -6.1166745649  MEMB      93              0.0000000000
     12368        99  POPC      H11R           -7.3761643837      -22.8543350418       -6.6369895771  MEMB      93              0.0000000000
     12369        99  POPC      H11S           -5.7930962947      -23.6682344982       -6.1411556918  MEMB      93              0.0000000000
     12370        99  POPC      C212           -7.2774262224      -23.5828725782       -4.6059145034  MEMB      93              0.0000000000
     12371        99  POPC      H12R           -8.3789488321      -23.6048988187       -4.4627925750  MEMB      93              0.0000000000
     12372        99  POPC      H12S           -6.9407609703      -22.6006404719       -4.2106968946  MEMB      93              0.0000000000
     12373        99  POPC      C213           -6.6509970152      -24.7156738162       -3.7184995491  MEMB      93              0.0000000000
     12374        99  POPC      H13R           -5.5590604460      -24.6131303806       -3.8959253407  MEMB      93              0.0000000000
     12375        99  POPC      H13S           -6.9186843873      -25.7206423425       -4.1092714684  MEMB      93              0.0000000000
     12376        99  POPC      C214           -7.1025658708      -24.6628662902       -2.2454538133  MEMB      93              0.0000000000
     12377        99  POPC      H14R           -6.7237798661      -25.5932185923       -1.7708102636  MEMB      93              0.0000000000
     12378        99  POPC      H14S           -8.1804845781      -24.9196165884       -2.1648823251  MEMB      93              0.0000000000
     12379        99  POPC      C215           -6.6979586496      -23.4463840856       -1.4457713045  MEMB      93              0.0000000000
     12380        99  POPC      H15R           -7.2411529082      -22.5327446778       -1.7690719293  MEMB      93              0.0000000000
     12381        99  POPC      H15S           -5.6225837939      -23.1676681151       -1.4601980716  MEMB      93              0.0000000000
     12382        99  POPC      C216           -6.9470759440      -23.5439944358        0.0664520979  MEMB      93              0.0000000000
     12383        99  POPC      H16R           -6.4062185345      -24.3588990913        0.5934487506  MEMB      93              0.0000000000
     12384        99  POPC      H16S           -8.0029744086      -23.8813030408        0.1414382759  MEMB      93              0.0000000000
     12385        99  POPC      C217           -6.7066014563      -22.2880664040        0.9006676981  MEMB      93              0.0000000000
     12386        99  POPC      H17R           -5.6078676759      -22.1235286300        0.9063151884  MEMB      93              0.0000000000
     12387        99  POPC      H17S           -7.0143462568      -22.2585172903        1.9677858602  MEMB      93              0.0000000000
     12388        99  POPC      C218           -7.1710349504      -20.8690522289        0.4486880115  MEMB      93              0.0000000000
     12389        99  POPC      H18R           -8.2537078883      -20.8109944812        0.2062648725  MEMB      93              0.0000000000
     12390        99  POPC      H18S           -6.5860722623      -20.5401051445       -0.4367117341  MEMB      93              0.0000000000
     12391        99  POPC      H18T           -6.9480081588      -20.1582712342        1.2729262844  MEMB      93              0.0000000000
     12392        99  POPC      C33           -12.1557304784      -17.8491920350      -14.8893610133  MEMB      93              0.0000000000
     12393        99  POPC      H3X           -13.2364024808      -18.1042927021      -14.9266800109  MEMB      93              0.0000000000
     12394        99  POPC      H3Y           -11.9310502925      -17.0865404588      -14.1133439264  MEMB      93              0.0000000000
     12395        99  POPC      C34           -11.5258474064      -19.2398603528      -14.6091363013  MEMB      93              0.0000000000
     12396        99  POPC      H4X           -11.4579476672      -19.7258950840      -15.6058712405  MEMB      93              0.0000000000
     12397        99  POPC      H4Y           -12.2801620901      -19.8801743387      -14.1038360893  MEMB      93              0.0000000000
     12398        99  POPC      C35           -10.1668844700      -19.2621789085      -13.8492199383  MEMB      93              0.0000000000
     12399        99  POPC      H5X            -9.8898154202      -18.1867329406      -13.8180810630  MEMB      93              0.0000000000
     12400        99  POPC      H5Y            -9.5127746739      -19.7503049554      -14.6030067057  MEMB      93              0.0000000000
     12401        99  POPC      C36           -10.1645675383      -20.1183182502      -12.5155190120  MEMB      93              0.0000000000
     12402        99  POPC      H6X            -9.1174961712      -20.4207709397      -12.2999156061  MEMB      93              0.0000000000
     12403        99  POPC      H6Y           -10.8825593415      -20.9566825687      -12.6418291006  MEMB      93              0.0000000000
     12404        99  POPC      C37           -10.6096932599      -19.1559019290      -11.2962010012  MEMB      93              0.0000000000
     12405        99  POPC      H7X           -11.5842457262      -18.7037047367      -11.5791964808  MEMB      93              0.0000000000
     12406        99  POPC      H7Y            -9.7994796438      -18.3964296880      -11.3290197700  MEMB      93              0.0000000000
     12407        99  POPC      C38           -10.7431013385      -19.8239617786       -9.9608312411  MEMB      93              0.0000000000
     12408        99  POPC      H8X            -9.7784226631      -20.1989961517       -9.5570185351  MEMB      93              0.0000000000
     12409        99  POPC      H8Y           -11.2918424809      -20.7890663361      -10.0029903587  MEMB      93              0.0000000000
     12410        99  POPC      C39           -11.2385005331      -18.9709744497       -8.8173378100  MEMB      93              0.0000000000
     12411        99  POPC      H9X           -12.3127424446      -18.7138887861       -8.9366342890  MEMB      93              0.0000000000
     12412        99  POPC      H9Y           -10.7416401901      -17.9779542843       -8.7804340287  MEMB      93              0.0000000000
     12413        99  POPC      C310          -11.0409832683      -19.7051247959       -7.4470720302  MEMB      93              0.0000000000
     12414        99  POPC      H10X           -9.9596378025      -19.9116171438       -7.2974941225  MEMB      93              0.0000000000
     12415        99  POPC      H10Y          -11.4420746797      -20.7297534030       -7.6006382156  MEMB      93              0.0000000000
     12416        99  POPC      C311          -11.5900208502      -18.9901174805       -6.1874682730  MEMB      93              0.0000000000
     12417        99  POPC      H11X          -12.6778167383      -18.7950308202       -6.3013203058  MEMB      93              0.0000000000
     12418        99  POPC      H11Y          -10.9978231571      -18.0504348310       -6.2123601499  MEMB      93              0.0000000000
     12419        99  POPC      C312          -11.3906769216      -19.6282716129       -4.7984550777  MEMB      93              0.0000000000
     12420        99  POPC      H12X          -11.8579338425      -20.6287745022       -4.9208719396  MEMB      93              0.0000000000
     12421        99  POPC      H12Y          -11.8112079172      -18.9431098021       -4.0316245907  MEMB      93              0.0000000000
     12422        99  POPC      C313           -9.9381123466      -19.9747013810       -4.3367392125  MEMB      93              0.0000000000
     12423        99  POPC      H13X           -9.7072309490      -18.9740830594       -3.9127365871  MEMB      93              0.0000000000
     12424        99  POPC      H13Y           -9.3292872042      -20.2117255245       -5.2353340572  MEMB      93              0.0000000000
     12425        99  POPC      C314           -9.8702686755      -21.0002201936       -3.1851516091  MEMB      93              0.0000000000
     12426        99  POPC      H14X           -8.8806437458      -21.1134314220       -2.6930676219  MEMB      93              0.0000000000
     12427        99  POPC      H14Y          -10.1295512862      -21.9633339352       -3.6745453844  MEMB      93              0.0000000000
     12428        99  POPC      C315          -10.9970042343      -20.9412431099       -2.0987617155  MEMB      93              0.0000000000
     12429        99  POPC      H15X          -11.9658235627      -20.8565327477       -2.6359152166  MEMB      93              0.0000000000
     12430        99  POPC      H15Y          -10.8071230008      -19.9986162575       -1.5422362542  MEMB      93              0.0000000000
     12431        99  POPC      C316          -11.0232650297      -22.1273734907       -1.1227419250  MEMB      93              0.0000000000
     12432        99  POPC      H16X          -10.0474876270      -22.1288794069       -0.5915380336  MEMB      93              0.0000000000
     12433        99  POPC      H16Y          -11.0765655120      -23.1275735617       -1.6034489275  MEMB      93              0.0000000000
     12434        99  POPC      H16Z          -11.9048193429      -22.0562546939       -0.4503396584  MEMB      93              0.0000000000
     12435       100  POPC      N              17.2327179138      -17.1668485625      -19.4401327555  MEMB      94              0.0000000000
     12436       100  POPC      C12            17.0208493071      -15.8074552014      -18.8182592628  MEMB      94              0.0000000000
     12437       100  POPC      H12A           16.0552516373      -15.8833200130      -18.3404875291  MEMB      94              0.0000000000
     12438       100  POPC      H12B           16.9819031150      -15.0666168821      -19.6031425905  MEMB      94              0.0000000000
     12439       100  POPC      C13            17.5173973770      -18.1802632271      -18.3653005833  MEMB      94              0.0000000000
     12440       100  POPC      H13A           16.8116444773      -18.0713900036      -17.5550787340  MEMB      94              0.0000000000
     12441       100  POPC      H13B           17.7022997103      -19.1669763522      -18.7635571953  MEMB      94              0.0000000000
     12442       100  POPC      H13C           18.4536908327      -17.9283868931      -17.8895767736  MEMB      94              0.0000000000
     12443       100  POPC      C14            15.9889035867      -17.6180296298      -20.1343571242  MEMB      94              0.0000000000
     12444       100  POPC      H14A           16.0261993823      -18.5914354509      -20.6007156926  MEMB      94              0.0000000000
     12445       100  POPC      H14B           15.1254016620      -17.6423641315      -19.4861501155  MEMB      94              0.0000000000
     12446       100  POPC      H14C           15.8019350230      -16.8252701774      -20.8435644947  MEMB      94              0.0000000000
     12447       100  POPC      C15            18.4051434010      -17.0374483352      -20.4667558070  MEMB      94              0.0000000000
     12448       100  POPC      H15A           18.5881022048      -15.9822080895      -20.6060180821  MEMB      94              0.0000000000
     12449       100  POPC      H15B           18.0836415900      -17.4678783203      -21.4036478288  MEMB      94              0.0000000000
     12450       100  POPC      H15C           19.2360532004      -17.6369083501      -20.1252346582  MEMB      94              0.0000000000
     12451       100  POPC      C11            17.9351811813      -15.3089077983      -17.7170522491  MEMB      94              0.0000000000
     12452       100  POPC      H11A           17.9562743571      -16.0419137051      -16.8824396193  MEMB      94              0.0000000000
     12453       100  POPC      H11B           17.5577244560      -14.3403721854      -17.3248962673  MEMB      94              0.0000000000
     12454       100  POPC      P              19.7454518623      -13.7962784567      -18.8760103010  MEMB      94              0.0000000000
     12455       100  POPC      O13            18.8574042185      -13.4638743437      -19.9897022261  MEMB      94              0.0000000000
     12456       100  POPC      O14            21.1274433499      -14.0565847850      -19.2602322161  MEMB      94              0.0000000000
     12457       100  POPC      O12            19.2819638733      -15.2025898048      -18.2088396298  MEMB      94              0.0000000000
     12458       100  POPC      O11            19.7382501904      -12.6946639595      -17.7233578936  MEMB      94              0.0000000000
     12459       100  POPC      C1             20.7913173470      -11.6750369387      -17.6504975303  MEMB      94              0.0000000000
     12460       100  POPC      HA             20.2718713672      -10.6962214416      -17.7306039151  MEMB      94              0.0000000000
     12461       100  POPC      HB             21.4934082152      -11.7310913654      -18.5097106840  MEMB      94              0.0000000000
     12462       100  POPC      C2             21.3993064351      -11.7536329828      -16.2593217599  MEMB      94              0.0000000000
     12463       100  POPC      HS             22.3267161089      -11.1418884866      -16.2585232378  MEMB      94              0.0000000000
     12464       100  POPC      O21            21.7326913063      -13.0436974850      -15.8643130559  MEMB      94              0.0000000000
     12465       100  POPC      C21            22.8826666479      -13.5438667173      -16.3664385175  MEMB      94              0.0000000000
     12466       100  POPC      O22            23.6717650628      -12.9546225012      -17.1230403940  MEMB      94              0.0000000000
     12467       100  POPC      C22            23.0438412318      -14.9538428902      -15.8449319463  MEMB      94              0.0000000000
     12468       100  POPC      H2R            23.6495454587      -14.7899120507      -14.9281059916  MEMB      94              0.0000000000
     12469       100  POPC      H2S            23.6902971939      -15.5036558923      -16.5619546053  MEMB      94              0.0000000000
     12470       100  POPC      C3             20.4036818963      -11.3028757790      -15.1171837448  MEMB      94              0.0000000000
     12471       100  POPC      HX             19.5543409455      -12.0190264949      -15.1254883516  MEMB      94              0.0000000000
     12472       100  POPC      HY             20.1301466930      -10.2368755288      -15.2693120458  MEMB      94              0.0000000000
     12473       100  POPC      O31            20.9435736461      -11.4303367654      -13.8211367186  MEMB      94              0.0000000000
     12474       100  POPC      C31            20.7405833045      -12.4817059053      -13.1137184922  MEMB      94              0.0000000000
     12475       100  POPC      O32            20.1149472618      -13.4659871063      -13.4050645693  MEMB      94              0.0000000000
     12476       100  POPC      C32            21.3607918579      -12.2258049827      -11.7404487591  MEMB      94              0.0000000000
     12477       100  POPC      H2X            20.9044304142      -11.3012043990      -11.3267233173  MEMB      94              0.0000000000
     12478       100  POPC      H2Y            22.4460648951      -12.0065223233      -11.8322032792  MEMB      94              0.0000000000
     12479       100  POPC      C23            21.7470397341      -15.6740981786      -15.6659311174  MEMB      94              0.0000000000
     12480       100  POPC      H3R            21.0688587804      -15.5454181361      -16.5364671007  MEMB      94              0.0000000000
     12481       100  POPC      H3S            21.3984902714      -15.2227118397      -14.7124719846  MEMB      94              0.0000000000
     12482       100  POPC      C24            21.8433507526      -17.2289876599      -15.3448460171  MEMB      94              0.0000000000
     12483       100  POPC      H4R            22.4571045496      -17.3388279186      -14.4253012737  MEMB      94              0.0000000000
     12484       100  POPC      H4S            22.4611320533      -17.5038128803      -16.2264005724  MEMB      94              0.0000000000
     12485       100  POPC      C25            20.4860420467      -18.0469676231      -15.3059590375  MEMB      94              0.0000000000
     12486       100  POPC      H5R            20.7826733694      -19.1160764338      -15.2481878334  MEMB      94              0.0000000000
     12487       100  POPC      H5S            19.9347377311      -17.9640421845      -16.2669520829  MEMB      94              0.0000000000
     12488       100  POPC      C26            19.5548026990      -17.7666804575      -14.0262111051  MEMB      94              0.0000000000
     12489       100  POPC      H6R            18.8557080074      -18.6274163217      -13.9574964600  MEMB      94              0.0000000000
     12490       100  POPC      H6S            18.8346051498      -16.9289379590      -14.1437856402  MEMB      94              0.0000000000
     12491       100  POPC      C27            20.2924616754      -17.6831812213      -12.7390662341  MEMB      94              0.0000000000
     12492       100  POPC      H7R            20.9544457268      -16.8039271119      -12.8907578910  MEMB      94              0.0000000000
     12493       100  POPC      H7S            20.8511379752      -18.6187566022      -12.5225004887  MEMB      94              0.0000000000
     12494       100  POPC      C28            19.3862902280      -17.2786099419      -11.4828099314  MEMB      94              0.0000000000
     12495       100  POPC      H8R            18.8200526560      -16.3832491978      -11.8175113217  MEMB      94              0.0000000000
     12496       100  POPC      H8S            20.0520327749      -16.9639252566      -10.6508957579  MEMB      94              0.0000000000
     12497       100  POPC      C29            18.3283555630      -18.3062008982      -11.1750015309  MEMB      94              0.0000000000
     12498       100  POPC      H91            17.3896147487      -18.2191537146      -11.7417363733  MEMB      94              0.0000000000
     12499       100  POPC      C210           18.5394585062      -19.3534042109      -10.3288067392  MEMB      94              0.0000000000
     12500       100  POPC      H101           17.7927008645      -20.1581172237      -10.2596014655  MEMB      94              0.0000000000
     12501       100  POPC      C211           19.7431875289      -19.6927701124       -9.5901673014  MEMB      94              0.0000000000
     12502       100  POPC      H11R           20.5337351253      -19.8977125898      -10.3433965939  MEMB      94              0.0000000000
     12503       100  POPC      H11S           19.6080276237      -20.6061346644       -8.9722523207  MEMB      94              0.0000000000
     12504       100  POPC      C212           20.1324346256      -18.7743154719       -8.4607096202  MEMB      94              0.0000000000
     12505       100  POPC      H12R           20.5778666143      -17.7964441095       -8.7429845319  MEMB      94              0.0000000000
     12506       100  POPC      H12S           20.9645360791      -19.2354299926       -7.8868620573  MEMB      94              0.0000000000
     12507       100  POPC      C213           19.0052442510      -18.4281432116       -7.4477487488  MEMB      94              0.0000000000
     12508       100  POPC      H13R           18.5706535866      -19.3250469852       -6.9568156334  MEMB      94              0.0000000000
     12509       100  POPC      H13S           18.1779311697      -17.7825371442       -7.8125319925  MEMB      94              0.0000000000
     12510       100  POPC      C214           19.4933952319      -17.6747810592       -6.1761275726  MEMB      94              0.0000000000
     12511       100  POPC      H14R           20.0411501274      -16.7837370084       -6.5507292742  MEMB      94              0.0000000000
     12512       100  POPC      H14S           20.2069374404      -18.3383923596       -5.6424624269  MEMB      94              0.0000000000
     12513       100  POPC      C215           18.4121631421      -17.4031450090       -5.1412936985  MEMB      94              0.0000000000
     12514       100  POPC      H15R           17.8315216799      -18.2670763409       -4.7529646113  MEMB      94              0.0000000000
     12515       100  POPC      H15S           17.6557097286      -16.7391509905       -5.6116245025  MEMB      94              0.0000000000
     12516       100  POPC      C216           19.0201037946      -16.9435519785       -3.8251110025  MEMB      94              0.0000000000
     12517       100  POPC      H16R           19.7314871954      -16.1601269467       -4.1634900429  MEMB      94              0.0000000000
     12518       100  POPC      H16S           19.5774108175      -17.7471734014       -3.2979279933  MEMB      94              0.0000000000
     12519       100  POPC      C217           18.0818529731      -16.3963418769       -2.6812688045  MEMB      94              0.0000000000
     12520       100  POPC      H17R           17.4887441130      -17.2834154279       -2.3720064883  MEMB      94              0.0000000000
     12521       100  POPC      H17S           17.2908869994      -15.7330505045       -3.0920465521  MEMB      94              0.0000000000
     12522       100  POPC      C218           18.6167614822      -16.1095637007       -1.3304227314  MEMB      94              0.0000000000
     12523       100  POPC      H18R           19.2221737490      -15.1976878133       -1.5208950728  MEMB      94              0.0000000000
     12524       100  POPC      H18S           19.2534106844      -16.9679622023       -1.0268593084  MEMB      94              0.0000000000
     12525       100  POPC      H18T           17.8193338232      -15.8712093026       -0.5944771296  MEMB      94              0.0000000000
     12526       100  POPC      C33            21.0527889478      -13.3522075795      -10.7394439796  MEMB      94              0.0000000000
     12527       100  POPC      H3X            21.4177209836      -14.2933300410      -11.2035929240  MEMB      94              0.0000000000
     12528       100  POPC      H3Y            19.9847415133      -13.6199804125      -10.5914806066  MEMB      94              0.0000000000
     12529       100  POPC      C34            21.7355167893      -13.2667822917       -9.3565834614  MEMB      94              0.0000000000
     12530       100  POPC      H4X            22.7614610826      -12.9253797248       -9.6119333945  MEMB      94              0.0000000000
     12531       100  POPC      H4Y            21.8380363471      -14.3064349737       -8.9785190307  MEMB      94              0.0000000000
     12532       100  POPC      C35            21.1418658390      -12.3503944349       -8.3388804268  MEMB      94              0.0000000000
     12533       100  POPC      H5X            21.0875767690      -11.4015653952       -8.9142910770  MEMB      94              0.0000000000
     12534       100  POPC      H5Y            21.7957478256      -12.1196595401       -7.4708249194  MEMB      94              0.0000000000
     12535       100  POPC      C36            19.7370173435      -12.7720060680       -7.9455018373  MEMB      94              0.0000000000
     12536       100  POPC      H6X            19.7352312082      -13.8590177331       -7.7158855346  MEMB      94              0.0000000000
     12537       100  POPC      H6Y            19.0849375089      -12.5191546227       -8.8087388913  MEMB      94              0.0000000000
     12538       100  POPC      C37            19.1339577166      -12.0528865416       -6.6793372070  MEMB      94              0.0000000000
     12539       100  POPC      H7X            18.9222121079      -11.0050367257       -6.9818200849  MEMB      94              0.0000000000
     12540       100  POPC      H7Y            19.9821723898      -12.1322015930       -5.9662017914  MEMB      94              0.0000000000
     12541       100  POPC      C38            17.8133762059      -12.6871534273       -6.3217536824  MEMB      94              0.0000000000
     12542       100  POPC      H8X            17.6374974329      -13.5570653818       -6.9900654014  MEMB      94              0.0000000000
     12543       100  POPC      H8Y            17.0147796937      -11.9568956448       -6.5733254929  MEMB      94              0.0000000000
     12544       100  POPC      C39            17.7722022908      -13.2040398736       -4.8382380713  MEMB      94              0.0000000000
     12545       100  POPC      H9X            18.5234545224      -14.0172014422       -4.7449159003  MEMB      94              0.0000000000
     12546       100  POPC      H9Y            16.8225445761      -13.7613599477       -4.6903675670  MEMB      94              0.0000000000
     12547       100  POPC      C310           17.8988927424      -12.1301724338       -3.7165758347  MEMB      94              0.0000000000
     12548       100  POPC      H10X           16.9005386667      -11.6652859435       -3.5699808600  MEMB      94              0.0000000000
     12549       100  POPC      H10Y           18.4101981884      -11.2117402604       -4.0762561535  MEMB      94              0.0000000000
     12550       100  POPC      C311           18.5485024126      -12.5963481413       -2.4436177920  MEMB      94              0.0000000000
     12551       100  POPC      H11X           19.4512821508      -13.0927210116       -2.8594584667  MEMB      94              0.0000000000
     12552       100  POPC      H11Y           18.0272719036      -13.3843820651       -1.8591147742  MEMB      94              0.0000000000
     12553       100  POPC      C312           18.7908165516      -11.4350892503       -1.4649891718  MEMB      94              0.0000000000
     12554       100  POPC      H12X           17.8581520980      -11.2918811996       -0.8785163614  MEMB      94              0.0000000000
     12555       100  POPC      H12Y           19.0381449700      -10.4591519207       -1.9347716736  MEMB      94              0.0000000000
     12556       100  POPC      C313           19.9131043880      -11.8515631408       -0.4686956899  MEMB      94              0.0000000000
     12557       100  POPC      H13X           19.5362637684      -12.7739334036        0.0227760688  MEMB      94              0.0000000000
     12558       100  POPC      H13Y           19.9386567786      -10.9937579432        0.2368798836  MEMB      94              0.0000000000
     12559       100  POPC      C314           21.3029837385      -12.1450796020       -1.1025918663  MEMB      94              0.0000000000
     12560       100  POPC      H14X           21.6264573940      -11.2612872995       -1.6930128827  MEMB      94              0.0000000000
     12561       100  POPC      H14Y           21.2441708296      -13.0032585430       -1.8057202725  MEMB      94              0.0000000000
     12562       100  POPC      C315           22.4348841447      -12.5470170657       -0.0922445227  MEMB      94              0.0000000000
     12563       100  POPC      H15X           23.4100693181      -12.6965236470       -0.6031096873  MEMB      94              0.0000000000
     12564       100  POPC      H15Y           22.0710992170      -13.4965116751        0.3554614152  MEMB      94              0.0000000000
     12565       100  POPC      C316           22.5961217351      -11.5669490252        1.0415239667  MEMB      94              0.0000000000
     12566       100  POPC      H16X           23.6176021649      -11.7368986569        1.4440371621  MEMB      94              0.0000000000
     12567       100  POPC      H16Y           21.8369162886      -11.6973862141        1.8420940813  MEMB      94              0.0000000000
     12568       100  POPC      H16Z           22.6233952801      -10.5373973652        0.6248695323  MEMB      94              0.0000000000
     12569       101  POPC      N             -19.8154744397      -18.4184193903      -18.9974826337  MEMB      95              0.0000000000
     12570       101  POPC      C12           -18.4278816424      -18.8328739588      -18.5424925660  MEMB      95              0.0000000000
     12571       101  POPC      H12A          -18.4257272246      -19.8764588563      -18.2644170485  MEMB      95              0.0000000000
     12572       101  POPC      H12B          -18.3482624101      -18.3003958732      -17.6062618119  MEMB      95              0.0000000000
     12573       101  POPC      C13           -20.0153384443      -16.9058076553      -18.9641835708  MEMB      95              0.0000000000
     12574       101  POPC      H13A          -19.2752670752      -16.4152711681      -19.5790560542  MEMB      95              0.0000000000
     12575       101  POPC      H13B          -20.9538009594      -16.5543096476      -19.3668465994  MEMB      95              0.0000000000
     12576       101  POPC      H13C          -19.9762143152      -16.6632885645      -17.9124926144  MEMB      95              0.0000000000
     12577       101  POPC      C14           -20.0349017255      -19.0021590545      -20.4116280982  MEMB      95              0.0000000000
     12578       101  POPC      H14A          -20.9690604907      -18.7310477990      -20.8809318227  MEMB      95              0.0000000000
     12579       101  POPC      H14B          -19.3758200995      -18.4990258538      -21.1036313262  MEMB      95              0.0000000000
     12580       101  POPC      H14C          -20.0042366183      -20.0766670641      -20.3072618757  MEMB      95              0.0000000000
     12581       101  POPC      C15           -20.8886335653      -18.9575084919      -18.0985099198  MEMB      95              0.0000000000
     12582       101  POPC      H15A          -20.7286127990      -20.0255778291      -18.1031381362  MEMB      95              0.0000000000
     12583       101  POPC      H15B          -21.8421930904      -18.6420323551      -18.4954974190  MEMB      95              0.0000000000
     12584       101  POPC      H15C          -20.9187572081      -18.6000782831      -17.0798165462  MEMB      95              0.0000000000
     12585       101  POPC      C11           -17.1455884627      -18.5642167543      -19.3653810572  MEMB      95              0.0000000000
     12586       101  POPC      H11A          -17.1849523474      -19.2360128938      -20.2493841966  MEMB      95              0.0000000000
     12587       101  POPC      H11B          -16.2809983255      -18.8432855676      -18.7259081490  MEMB      95              0.0000000000
     12588       101  POPC      P             -16.2457232278      -16.1882585541      -18.9866827135  MEMB      95              0.0000000000
     12589       101  POPC      O13           -17.0709420186      -14.9654694636      -18.6317677700  MEMB      95              0.0000000000
     12590       101  POPC      O14           -14.9457002471      -15.9779106898      -19.6411146552  MEMB      95              0.0000000000
     12591       101  POPC      O12           -17.0762312880      -17.1987810981      -19.7647920342  MEMB      95              0.0000000000
     12592       101  POPC      O11           -16.1147124442      -16.9484068928      -17.5959649774  MEMB      95              0.0000000000
     12593       101  POPC      C1            -14.8520647485      -17.2456641340      -16.9807159607  MEMB      95              0.0000000000
     12594       101  POPC      HA            -14.2783209402      -16.3109803047      -16.8032186441  MEMB      95              0.0000000000
     12595       101  POPC      HB            -14.3274032240      -17.9941079589      -17.6122880138  MEMB      95              0.0000000000
     12596       101  POPC      C2            -15.1194087605      -17.8702438335      -15.5378410147  MEMB      95              0.0000000000
     12597       101  POPC      HS            -14.1250370037      -18.1422511149      -15.1236453644  MEMB      95              0.0000000000
     12598       101  POPC      O21           -15.9623668084      -19.0159953308      -15.5547368328  MEMB      95              0.0000000000
     12599       101  POPC      C21           -15.3829951259      -20.1181885845      -16.0051654136  MEMB      95              0.0000000000
     12600       101  POPC      O22           -14.2419120086      -20.2582614593      -16.3483892469  MEMB      95              0.0000000000
     12601       101  POPC      C22           -16.6030207694      -21.0747230843      -16.0786251197  MEMB      95              0.0000000000
     12602       101  POPC      H2R           -16.3355410059      -22.1511031354      -16.0139588271  MEMB      95              0.0000000000
     12603       101  POPC      H2S           -16.9746752946      -21.1350760550      -17.1238768432  MEMB      95              0.0000000000
     12604       101  POPC      C3            -15.8115630731      -16.8427136651      -14.5677658282  MEMB      95              0.0000000000
     12605       101  POPC      HX            -16.8246256795      -16.5747674186      -14.9368595534  MEMB      95              0.0000000000
     12606       101  POPC      HY            -15.2290370108      -15.9092884808      -14.4138118043  MEMB      95              0.0000000000
     12607       101  POPC      O31           -16.0212825405      -17.5229746055      -13.3471711512  MEMB      95              0.0000000000
     12608       101  POPC      C31           -15.0472815125      -17.7223468408      -12.6224090681  MEMB      95              0.0000000000
     12609       101  POPC      O32           -13.8946878857      -17.4241226953      -12.7513408781  MEMB      95              0.0000000000
     12610       101  POPC      C32           -15.5602435205      -18.3758960998      -11.3223001961  MEMB      95              0.0000000000
     12611       101  POPC      H2X           -16.6696967759      -18.4344307209      -11.3194434406  MEMB      95              0.0000000000
     12612       101  POPC      H2Y           -15.2451791050      -17.6724249313      -10.5221851598  MEMB      95              0.0000000000
     12613       101  POPC      C23           -17.6967748352      -20.8078675738      -15.0032757919  MEMB      95              0.0000000000
     12614       101  POPC      H3R           -18.1330583961      -19.7914771519      -15.1078153050  MEMB      95              0.0000000000
     12615       101  POPC      H3S           -17.1810889917      -20.8336393299      -14.0195455829  MEMB      95              0.0000000000
     12616       101  POPC      C24           -18.9425345329      -21.7055891598      -14.9911526151  MEMB      95              0.0000000000
     12617       101  POPC      H4R           -18.9352498955      -22.4269881124      -15.8360502149  MEMB      95              0.0000000000
     12618       101  POPC      H4S           -19.9179187066      -21.1736686398      -14.9885266280  MEMB      95              0.0000000000
     12619       101  POPC      C25           -19.1288742123      -22.5361552078      -13.7134604979  MEMB      95              0.0000000000
     12620       101  POPC      H5R           -18.2025528585      -23.1495426458      -13.7157051936  MEMB      95              0.0000000000
     12621       101  POPC      H5S           -20.0543237210      -23.1495224744      -13.7540114718  MEMB      95              0.0000000000
     12622       101  POPC      C26           -19.0945561442      -21.6259710064      -12.4327628516  MEMB      95              0.0000000000
     12623       101  POPC      H6R           -19.7348380934      -20.7860810003      -12.7776467756  MEMB      95              0.0000000000
     12624       101  POPC      H6S           -18.0730175219      -21.2665822471      -12.1845300588  MEMB      95              0.0000000000
     12625       101  POPC      C27           -19.6316568355      -22.2707753608      -11.1558647325  MEMB      95              0.0000000000
     12626       101  POPC      H7R           -18.8692042160      -23.0411196031      -10.9118220934  MEMB      95              0.0000000000
     12627       101  POPC      H7S           -20.5613170964      -22.8462119093      -11.3531610112  MEMB      95              0.0000000000
     12628       101  POPC      C28           -19.9252236235      -21.3320372472       -9.9144535919  MEMB      95              0.0000000000
     12629       101  POPC      H8R           -19.0210937278      -20.7110582265       -9.7376631024  MEMB      95              0.0000000000
     12630       101  POPC      H8S           -20.1361806311      -21.9531758598       -9.0177903824  MEMB      95              0.0000000000
     12631       101  POPC      C29           -21.0667601559      -20.3675565433      -10.2663810286  MEMB      95              0.0000000000
     12632       101  POPC      H91           -22.0964182903      -20.7379285494      -10.3787571468  MEMB      95              0.0000000000
     12633       101  POPC      C210          -20.9228817513      -19.0379193412      -10.3246578377  MEMB      95              0.0000000000
     12634       101  POPC      H101          -21.8554483576      -18.5067279178      -10.5658125859  MEMB      95              0.0000000000
     12635       101  POPC      C211          -19.7153482053      -18.1437057905      -10.1891248550  MEMB      95              0.0000000000
     12636       101  POPC      H11R          -19.5163531615      -17.4850972339      -11.0614525824  MEMB      95              0.0000000000
     12637       101  POPC      H11S          -18.7782755923      -18.7392458888      -10.1497770217  MEMB      95              0.0000000000
     12638       101  POPC      C212          -19.9016080593      -17.1528744702       -9.0510297917  MEMB      95              0.0000000000
     12639       101  POPC      H12R          -20.8664813951      -16.6031297899       -9.0845164558  MEMB      95              0.0000000000
     12640       101  POPC      H12S          -19.1685762029      -16.3333035120       -9.2100541623  MEMB      95              0.0000000000
     12641       101  POPC      C213          -19.8145597465      -17.8208476361       -7.6253941995  MEMB      95              0.0000000000
     12642       101  POPC      H13R          -18.7878406676      -18.1341178087       -7.3389837796  MEMB      95              0.0000000000
     12643       101  POPC      H13S          -20.4182284051      -18.7533933818       -7.6091580187  MEMB      95              0.0000000000
     12644       101  POPC      C214          -20.3927414990      -16.9732882565       -6.4965072179  MEMB      95              0.0000000000
     12645       101  POPC      H14R          -21.4967529538      -16.8877656627       -6.5868690911  MEMB      95              0.0000000000
     12646       101  POPC      H14S          -19.8805794390      -15.9955256582       -6.6229653575  MEMB      95              0.0000000000
     12647       101  POPC      C215          -20.2090323667      -17.6056777156       -5.0464137124  MEMB      95              0.0000000000
     12648       101  POPC      H15R          -19.1415238357      -17.9093203341       -4.9959392749  MEMB      95              0.0000000000
     12649       101  POPC      H15S          -20.8048545191      -18.5414504417       -4.9860248961  MEMB      95              0.0000000000
     12650       101  POPC      C216          -20.5782390101      -16.6687278091       -3.7761427666  MEMB      95              0.0000000000
     12651       101  POPC      H16R          -21.5164035892      -16.1626182274       -4.0892247859  MEMB      95              0.0000000000
     12652       101  POPC      H16S          -19.8296733249      -15.8536805651       -3.6778162534  MEMB      95              0.0000000000
     12653       101  POPC      C217          -20.7524032151      -17.2426321656       -2.3947925244  MEMB      95              0.0000000000
     12654       101  POPC      H17R          -21.7323864549      -17.7253303026       -2.1924164214  MEMB      95              0.0000000000
     12655       101  POPC      H17S          -20.7246578568      -16.4772304684       -1.5899874180  MEMB      95              0.0000000000
     12656       101  POPC      C218          -19.6431645444      -18.2573949511       -2.0425098084  MEMB      95              0.0000000000
     12657       101  POPC      H18R          -18.6332101335      -17.7945091104       -2.0354540843  MEMB      95              0.0000000000
     12658       101  POPC      H18S          -19.7177038496      -19.1611549239       -2.6843693668  MEMB      95              0.0000000000
     12659       101  POPC      H18T          -19.7201840708      -18.7696775220       -1.0596804540  MEMB      95              0.0000000000
     12660       101  POPC      C33           -14.9219282306      -19.7474401560      -11.0535211270  MEMB      95              0.0000000000
     12661       101  POPC      H3X           -13.9437021499      -19.5162157119      -10.5803089486  MEMB      95              0.0000000000
     12662       101  POPC      H3Y           -14.8220815530      -20.3487229712      -11.9823973657  MEMB      95              0.0000000000
     12663       101  POPC      C34           -15.6770889823      -20.6359925390       -9.9751598945  MEMB      95              0.0000000000
     12664       101  POPC      H4X           -15.0497284446      -21.5491628739       -9.8923357619  MEMB      95              0.0000000000
     12665       101  POPC      H4Y           -16.6639028516      -20.9918710389      -10.3410423186  MEMB      95              0.0000000000
     12666       101  POPC      C35           -15.9090717649      -20.0126940084       -8.6127900594  MEMB      95              0.0000000000
     12667       101  POPC      H5X           -16.6476059609      -19.1954468916       -8.7576872755  MEMB      95              0.0000000000
     12668       101  POPC      H5Y           -14.8743232033      -19.6492667194       -8.4352036082  MEMB      95              0.0000000000
     12669       101  POPC      C36           -16.2246082180      -21.0922058637       -7.5957451314  MEMB      95              0.0000000000
     12670       101  POPC      H6X           -15.3197332758      -21.7331992010       -7.5275561790  MEMB      95              0.0000000000
     12671       101  POPC      H6Y           -17.0111843489      -21.7696893826       -7.9915168371  MEMB      95              0.0000000000
     12672       101  POPC      C37           -16.5812756378      -20.5037621364       -6.1817931399  MEMB      95              0.0000000000
     12673       101  POPC      H7X           -17.0254067386      -21.3150214618       -5.5662227150  MEMB      95              0.0000000000
     12674       101  POPC      H7Y           -17.4233564010      -19.7890236223       -6.3016670607  MEMB      95              0.0000000000
     12675       101  POPC      C38           -15.4934170604      -19.7749760428       -5.4471225422  MEMB      95              0.0000000000
     12676       101  POPC      H8X           -14.9840633847      -18.9680971859       -6.0161797985  MEMB      95              0.0000000000
     12677       101  POPC      H8Y           -14.6944276811      -20.5039206351       -5.1930021336  MEMB      95              0.0000000000
     12678       101  POPC      C39           -16.0769986291      -19.1108531793       -4.1450380881  MEMB      95              0.0000000000
     12679       101  POPC      H9X           -16.4400502025      -19.9333809188       -3.4923797156  MEMB      95              0.0000000000
     12680       101  POPC      H9Y           -16.9032522597      -18.4305611309       -4.4430791582  MEMB      95              0.0000000000
     12681       101  POPC      C310          -14.9351130995      -18.2383381202       -3.5201168498  MEMB      95              0.0000000000
     12682       101  POPC      H10X          -14.3677770570      -17.5487212499       -4.1810852983  MEMB      95              0.0000000000
     12683       101  POPC      H10Y          -14.2455470856      -18.9833103663       -3.0686345801  MEMB      95              0.0000000000
     12684       101  POPC      C311          -15.5474896093      -17.4236586029       -2.3689874275  MEMB      95              0.0000000000
     12685       101  POPC      H11X          -16.2898832297      -17.8970225667       -1.6914190594  MEMB      95              0.0000000000
     12686       101  POPC      H11Y          -16.1809891385      -16.6113459269       -2.7850978458  MEMB      95              0.0000000000
     12687       101  POPC      C312          -14.4995687966      -16.7422976224       -1.3653310093  MEMB      95              0.0000000000
     12688       101  POPC      H12X          -14.9600628018      -15.9140188001       -0.7854861224  MEMB      95              0.0000000000
     12689       101  POPC      H12Y          -13.6302332976      -16.2773894152       -1.8776162585  MEMB      95              0.0000000000
     12690       101  POPC      C313          -13.9324358940      -17.8441076985       -0.3072516213  MEMB      95              0.0000000000
     12691       101  POPC      H13X          -13.0644320293      -17.3426790201        0.1717679785  MEMB      95              0.0000000000
     12692       101  POPC      H13Y          -13.5108377639      -18.5966508220       -1.0074342231  MEMB      95              0.0000000000
     12693       101  POPC      C314          -14.9816784284      -18.2082887023        0.6530019359  MEMB      95              0.0000000000
     12694       101  POPC      H14X          -15.5648211714      -19.0341639059        0.1923547501  MEMB      95              0.0000000000
     12695       101  POPC      H14Y          -15.7092389473      -17.3905558849        0.8434996541  MEMB      95              0.0000000000
     12696       101  POPC      C315          -14.2768352836      -18.6054567522        1.9988343392  MEMB      95              0.0000000000
     12697       101  POPC      H15X          -15.1257365254      -18.7563634168        2.6994883505  MEMB      95              0.0000000000
     12698       101  POPC      H15Y          -13.7458269924      -17.7438465472        2.4570691938  MEMB      95              0.0000000000
     12699       101  POPC      C316          -13.2648985236      -19.7319558336        1.9405954630  MEMB      95              0.0000000000
     12700       101  POPC      H16X          -13.7199048146      -20.6139921581        1.4412938132  MEMB      95              0.0000000000
     12701       101  POPC      H16Y          -12.9239846338      -20.0090458148        2.9610461832  MEMB      95              0.0000000000
     12702       101  POPC      H16Z          -12.3208947194      -19.5027948997        1.4014619301  MEMB      95              0.0000000000
     12703       102  POPC      N               3.4000795802       26.0230180929      -18.1751561805  MEMB      96              0.0000000000
     12704       102  POPC      C12             2.2950853411       24.9669825032      -17.9399020246  MEMB      96              0.0000000000
     12705       102  POPC      H12A            1.4872513134       25.4930695586      -17.4530380256  MEMB      96              0.0000000000
     12706       102  POPC      H12B            2.6663712732       24.2752004482      -17.1982928198  MEMB      96              0.0000000000
     12707       102  POPC      C13             2.9492867938       27.2233821742      -19.0192460153  MEMB      96              0.0000000000
     12708       102  POPC      H13A            1.9726098167       27.5674354013      -18.7124405783  MEMB      96              0.0000000000
     12709       102  POPC      H13B            3.6136692818       28.0518528715      -18.8226950580  MEMB      96              0.0000000000
     12710       102  POPC      H13C            2.9590864105       26.9289749015      -20.0582976389  MEMB      96              0.0000000000
     12711       102  POPC      C14             3.7693815072       26.5281954208      -16.8132160772  MEMB      96              0.0000000000
     12712       102  POPC      H14A            4.2260154518       25.7919754299      -16.1683395163  MEMB      96              0.0000000000
     12713       102  POPC      H14B            4.3957785109       27.4055524675      -16.8785692712  MEMB      96              0.0000000000
     12714       102  POPC      H14C            2.9482730862       26.8343874762      -16.1820049580  MEMB      96              0.0000000000
     12715       102  POPC      C15             4.6264282985       25.3871391570      -18.8108511817  MEMB      96              0.0000000000
     12716       102  POPC      H15A            4.9606016053       24.6518350832      -18.0938740831  MEMB      96              0.0000000000
     12717       102  POPC      H15B            5.4806563655       26.0478785514      -18.8217090279  MEMB      96              0.0000000000
     12718       102  POPC      H15C            4.3745507219       24.9523986674      -19.7668628955  MEMB      96              0.0000000000
     12719       102  POPC      C11             1.6308772075       24.1482758345      -19.0502822823  MEMB      96              0.0000000000
     12720       102  POPC      H11A            0.9332501617       23.3887498108      -18.6370537905  MEMB      96              0.0000000000
     12721       102  POPC      H11B            2.3603556576       23.5076539262      -19.5904541944  MEMB      96              0.0000000000
     12722       102  POPC      P              -0.6218724274       25.1865815808      -19.9203684335  MEMB      96              0.0000000000
     12723       102  POPC      O13            -1.3244886128       24.0801702040      -20.5740244834  MEMB      96              0.0000000000
     12724       102  POPC      O14            -0.9496228188       26.5971613747      -20.3340128483  MEMB      96              0.0000000000
     12725       102  POPC      O12             0.9741354270       24.9649152283      -19.9948995252  MEMB      96              0.0000000000
     12726       102  POPC      O11            -0.8132314991       25.0465619882      -18.3680409071  MEMB      96              0.0000000000
     12727       102  POPC      C1             -2.1945513259       25.1240004547      -18.0128469454  MEMB      96              0.0000000000
     12728       102  POPC      HA             -2.8064192929       24.3935885334      -18.5841938697  MEMB      96              0.0000000000
     12729       102  POPC      HB             -2.5626367232       26.1512780693      -18.2214974813  MEMB      96              0.0000000000
     12730       102  POPC      C2             -2.4919966693       24.8004333848      -16.4400283450  MEMB      96              0.0000000000
     12731       102  POPC      HS             -3.5342000623       25.1516084114      -16.2825185854  MEMB      96              0.0000000000
     12732       102  POPC      O21            -1.6649413991       25.3603352679      -15.5152402800  MEMB      96              0.0000000000
     12733       102  POPC      C21            -1.7145399684       26.7085182444      -15.3726164016  MEMB      96              0.0000000000
     12734       102  POPC      O22            -2.5306523548       27.4408319801      -15.9124643142  MEMB      96              0.0000000000
     12735       102  POPC      C22            -0.5802885680       27.2727287832      -14.5432996140  MEMB      96              0.0000000000
     12736       102  POPC      H2R             0.3758662161       26.7084740256      -14.5846004010  MEMB      96              0.0000000000
     12737       102  POPC      H2S            -0.9461133397       27.2366259418      -13.4948770757  MEMB      96              0.0000000000
     12738       102  POPC      C3             -2.5191300370       23.3119889633      -16.1568235887  MEMB      96              0.0000000000
     12739       102  POPC      HX             -3.0734081088       22.7600403248      -16.9457782666  MEMB      96              0.0000000000
     12740       102  POPC      HY             -2.9018370289       23.2125106394      -15.1185747946  MEMB      96              0.0000000000
     12741       102  POPC      O31            -1.1818611430       22.7958961573      -16.2388991648  MEMB      96              0.0000000000
     12742       102  POPC      C31            -0.9258108402       21.5142833604      -15.8687156181  MEMB      96              0.0000000000
     12743       102  POPC      O32            -1.8330218328       20.8056395940      -15.6151500983  MEMB      96              0.0000000000
     12744       102  POPC      C32             0.5054788798       21.0871884018      -16.2319527045  MEMB      96              0.0000000000
     12745       102  POPC      H2X             0.6578060780       21.1959439798      -17.3270735089  MEMB      96              0.0000000000
     12746       102  POPC      H2Y             0.6615333179       19.9986248381      -16.0738446760  MEMB      96              0.0000000000
     12747       102  POPC      C23            -0.2065440737       28.6708960050      -15.0063743393  MEMB      96              0.0000000000
     12748       102  POPC      H3R            -1.0490226180       29.3809017660      -15.1493520894  MEMB      96              0.0000000000
     12749       102  POPC      H3S             0.3336716795       28.5365855370      -15.9678567984  MEMB      96              0.0000000000
     12750       102  POPC      C24             0.7232511570       29.4780556249      -14.0888918521  MEMB      96              0.0000000000
     12751       102  POPC      H4R             0.9947238777       30.4352276802      -14.5833067681  MEMB      96              0.0000000000
     12752       102  POPC      H4S             1.6954746078       28.9403732043      -14.0885946857  MEMB      96              0.0000000000
     12753       102  POPC      C25             0.3040360931       29.8878528274      -12.6693457498  MEMB      96              0.0000000000
     12754       102  POPC      H5R            -0.4598310919       30.6871146772      -12.7789272218  MEMB      96              0.0000000000
     12755       102  POPC      H5S             1.1262372847       30.5795193578      -12.3866746880  MEMB      96              0.0000000000
     12756       102  POPC      C26             0.0732580039       28.8175194970      -11.6156957397  MEMB      96              0.0000000000
     12757       102  POPC      H6R             0.7923078273       27.9707818750      -11.6336933029  MEMB      96              0.0000000000
     12758       102  POPC      H6S            -0.9394449351       28.3942551949      -11.7877455764  MEMB      96              0.0000000000
     12759       102  POPC      C27             0.0777312282       29.3183942748      -10.1888089569  MEMB      96              0.0000000000
     12760       102  POPC      H7R            -0.7360355675       30.0544211315      -10.0145417710  MEMB      96              0.0000000000
     12761       102  POPC      H7S             1.0466105080       29.8510645070      -10.0799222896  MEMB      96              0.0000000000
     12762       102  POPC      C28            -0.1032463563       28.1853926472       -9.1096060480  MEMB      96              0.0000000000
     12763       102  POPC      H8R             0.1881570483       28.5816937079       -8.1134383367  MEMB      96              0.0000000000
     12764       102  POPC      H8S             0.6608743684       27.3827709216       -9.1885942138  MEMB      96              0.0000000000
     12765       102  POPC      C29            -1.5546118910       27.6912131333       -9.0180584075  MEMB      96              0.0000000000
     12766       102  POPC      H91            -2.1507214270       27.6554328765       -9.9418407902  MEMB      96              0.0000000000
     12767       102  POPC      C210           -2.2526743178       27.4278280922       -7.9161440183  MEMB      96              0.0000000000
     12768       102  POPC      H101           -3.2917490237       27.0745262475       -7.9903166995  MEMB      96              0.0000000000
     12769       102  POPC      C211           -1.6925389202       27.5976086537       -6.4921892108  MEMB      96              0.0000000000
     12770       102  POPC      H11R           -0.7033163903       28.0988735110       -6.5592214470  MEMB      96              0.0000000000
     12771       102  POPC      H11S           -1.5088906355       26.6387429928       -5.9619334334  MEMB      96              0.0000000000
     12772       102  POPC      C212           -2.3405552827       28.5314074853       -5.4163704469  MEMB      96              0.0000000000
     12773       102  POPC      H12R           -3.2952312354       28.1062438801       -5.0393413075  MEMB      96              0.0000000000
     12774       102  POPC      H12S           -2.5108492328       29.4408454586       -6.0313854498  MEMB      96              0.0000000000
     12775       102  POPC      C213           -1.5049617415       29.0691757195       -4.2610980967  MEMB      96              0.0000000000
     12776       102  POPC      H13R           -0.6170907030       29.7075481879       -4.4572780657  MEMB      96              0.0000000000
     12777       102  POPC      H13S           -1.1727853729       28.1404969304       -3.7496921782  MEMB      96              0.0000000000
     12778       102  POPC      C214           -2.4083050939       29.8277037824       -3.2358358812  MEMB      96              0.0000000000
     12779       102  POPC      H14R           -3.2765931701       30.2361079264       -3.7958380669  MEMB      96              0.0000000000
     12780       102  POPC      H14S           -1.8158257472       30.6811519535       -2.8422434717  MEMB      96              0.0000000000
     12781       102  POPC      C215           -2.7872154644       28.8095617136       -2.0737952072  MEMB      96              0.0000000000
     12782       102  POPC      H15R           -3.2638941211       27.8459696157       -2.3541319827  MEMB      96              0.0000000000
     12783       102  POPC      H15S           -3.6715687702       29.3895158754       -1.7333644693  MEMB      96              0.0000000000
     12784       102  POPC      C216           -1.6961400052       28.6719218526       -1.0034219465  MEMB      96              0.0000000000
     12785       102  POPC      H16R           -1.4123406400       29.6890541580       -0.6581370994  MEMB      96              0.0000000000
     12786       102  POPC      H16S           -0.7855387597       28.2385184505       -1.4695633592  MEMB      96              0.0000000000
     12787       102  POPC      C217           -2.2110297893       27.7600417366        0.1205898956  MEMB      96              0.0000000000
     12788       102  POPC      H17R           -2.2380626721       26.6975657664       -0.2030374865  MEMB      96              0.0000000000
     12789       102  POPC      H17S           -3.2138883541       28.1948787030        0.3193700170  MEMB      96              0.0000000000
     12790       102  POPC      C218           -1.3594099959       27.6612742891        1.4314987272  MEMB      96              0.0000000000
     12791       102  POPC      H18R           -1.2026174311       28.6476502707        1.9181192775  MEMB      96              0.0000000000
     12792       102  POPC      H18S           -0.3602091704       27.2182863899        1.2322986356  MEMB      96              0.0000000000
     12793       102  POPC      H18T           -1.8135592264       26.8424105584        2.0294369633  MEMB      96              0.0000000000
     12794       102  POPC      C33             1.4553690158       21.9676797965      -15.4191393593  MEMB      96              0.0000000000
     12795       102  POPC      H3X             1.2279663898       23.0516666471      -15.5062123070  MEMB      96              0.0000000000
     12796       102  POPC      H3Y             2.5310943141       21.7763745981      -15.6204798913  MEMB      96              0.0000000000
     12797       102  POPC      C34             1.2330266700       21.8261742349      -13.8886830355  MEMB      96              0.0000000000
     12798       102  POPC      H4X             2.1518888492       21.4973867117      -13.3577289088  MEMB      96              0.0000000000
     12799       102  POPC      H4Y             0.4877886457       21.0305195195      -13.6744989750  MEMB      96              0.0000000000
     12800       102  POPC      C35             0.6174966702       23.0878767570      -13.2053384924  MEMB      96              0.0000000000
     12801       102  POPC      H5X            -0.0764061170       23.6800858973      -13.8394583810  MEMB      96              0.0000000000
     12802       102  POPC      H5Y             1.4834156996       23.7816883201      -13.1493853989  MEMB      96              0.0000000000
     12803       102  POPC      C36             0.2035106957       22.7695220055      -11.7261565555  MEMB      96              0.0000000000
     12804       102  POPC      H6X             0.8891864004       22.0893897409      -11.1769848466  MEMB      96              0.0000000000
     12805       102  POPC      H6Y            -0.8037835321       22.3096784852      -11.6354754367  MEMB      96              0.0000000000
     12806       102  POPC      C37             0.0923624735       24.1996794759      -10.9571676002  MEMB      96              0.0000000000
     12807       102  POPC      H7X            -0.7873580051       24.7125432083      -11.4014468794  MEMB      96              0.0000000000
     12808       102  POPC      H7Y             0.9886224977       24.8398611157      -11.1027925344  MEMB      96              0.0000000000
     12809       102  POPC      C38             0.1253140581       24.0040483432       -9.4492521166  MEMB      96              0.0000000000
     12810       102  POPC      H8X            -0.7303585898       23.3290162651       -9.2336680732  MEMB      96              0.0000000000
     12811       102  POPC      H8Y            -0.0717265607       25.0123294182       -9.0263274789  MEMB      96              0.0000000000
     12812       102  POPC      C39             1.3134921861       23.3402722179       -8.7922942356  MEMB      96              0.0000000000
     12813       102  POPC      H9X             2.1903444447       23.7759157703       -9.3173331130  MEMB      96              0.0000000000
     12814       102  POPC      H9Y             1.2751789745       22.2510187148       -9.0076543772  MEMB      96              0.0000000000
     12815       102  POPC      C310            1.4097642237       23.4269793068       -7.2715370396  MEMB      96              0.0000000000
     12816       102  POPC      H10X            1.7014768088       24.4468930652       -6.9413850399  MEMB      96              0.0000000000
     12817       102  POPC      H10Y            2.1286374354       22.6516813974       -6.9302818750  MEMB      96              0.0000000000
     12818       102  POPC      C311            0.0741167418       23.0302754426       -6.5980716720  MEMB      96              0.0000000000
     12819       102  POPC      H11X           -0.1814438145       22.0165320050       -6.9740154231  MEMB      96              0.0000000000
     12820       102  POPC      H11Y           -0.6637410761       23.7062155515       -7.0807638072  MEMB      96              0.0000000000
     12821       102  POPC      C312           -0.1187063678       23.1146591713       -5.1095231299  MEMB      96              0.0000000000
     12822       102  POPC      H12X            0.3448572696       22.3192404059       -4.4876394449  MEMB      96              0.0000000000
     12823       102  POPC      H12Y           -1.1933372889       22.9432188711       -4.8856994043  MEMB      96              0.0000000000
     12824       102  POPC      C313            0.3029948192       24.4449031467       -4.4472188829  MEMB      96              0.0000000000
     12825       102  POPC      H13X           -0.3819709586       25.2429063469       -4.8054561860  MEMB      96              0.0000000000
     12826       102  POPC      H13Y            1.3302301188       24.8057413265       -4.6683633604  MEMB      96              0.0000000000
     12827       102  POPC      C314            0.2378782983       24.4001524128       -2.8955850131  MEMB      96              0.0000000000
     12828       102  POPC      H14X           -0.6789683668       23.8395726419       -2.6136914828  MEMB      96              0.0000000000
     12829       102  POPC      H14Y            0.4433491753       25.4253718512       -2.5200484153  MEMB      96              0.0000000000
     12830       102  POPC      C315            1.3570207657       23.5315067261       -2.2875177942  MEMB      96              0.0000000000
     12831       102  POPC      H15X            2.3190661382       24.0458257732       -2.4979087104  MEMB      96              0.0000000000
     12832       102  POPC      H15Y            1.4422216618       22.5390425842       -2.7795308864  MEMB      96              0.0000000000
     12833       102  POPC      C316            1.3192421431       23.3340095576       -0.7566127875  MEMB      96              0.0000000000
     12834       102  POPC      H16X            2.2949209120       22.9581907482       -0.3809364898  MEMB      96              0.0000000000
     12835       102  POPC      H16Y            0.4851148282       22.6975843951       -0.3912152747  MEMB      96              0.0000000000
     12836       102  POPC      H16Z            1.3610942654       24.3117293113       -0.2306533175  MEMB      96              0.0000000000
     12837       103  POPC      N             -20.4789714013       11.3612126325      -20.4452474823  MEMB      97              0.0000000000
     12838       103  POPC      C12           -21.5791963227       11.1888007238      -19.3615657816  MEMB      97              0.0000000000
     12839       103  POPC      H12A          -21.4114346072       10.1934583469      -18.9774441084  MEMB      97              0.0000000000
     12840       103  POPC      H12B          -22.5293931517       11.2913980353      -19.8645564814  MEMB      97              0.0000000000
     12841       103  POPC      C13           -19.1485820662       11.4537381470      -19.7618375641  MEMB      97              0.0000000000
     12842       103  POPC      H13A          -18.9120626012       10.4674736508      -19.3907028522  MEMB      97              0.0000000000
     12843       103  POPC      H13B          -18.3965576711       11.8893056332      -20.4030398507  MEMB      97              0.0000000000
     12844       103  POPC      H13C          -19.2419701712       12.1286088930      -18.9238470799  MEMB      97              0.0000000000
     12845       103  POPC      C14           -20.4771495416       10.2034109637      -21.4058873484  MEMB      97              0.0000000000
     12846       103  POPC      H14A          -21.3686190317       10.1879329128      -22.0153483207  MEMB      97              0.0000000000
     12847       103  POPC      H14B          -19.6237788009       10.2890777309      -22.0622558198  MEMB      97              0.0000000000
     12848       103  POPC      H14C          -20.4705709227        9.2909530601      -20.8281526958  MEMB      97              0.0000000000
     12849       103  POPC      C15           -20.8357609360       12.5277851430      -21.3838113602  MEMB      97              0.0000000000
     12850       103  POPC      H15A          -21.0529775467       13.4713935185      -20.9054598655  MEMB      97              0.0000000000
     12851       103  POPC      H15B          -21.7251439960       12.3241460445      -21.9616771943  MEMB      97              0.0000000000
     12852       103  POPC      H15C          -20.0664002199       12.7588531582      -22.1056781603  MEMB      97              0.0000000000
     12853       103  POPC      C11           -21.6298408711       12.0431400030      -18.1058967395  MEMB      97              0.0000000000
     12854       103  POPC      H11A          -20.7203459548       11.7853750072      -17.5222040668  MEMB      97              0.0000000000
     12855       103  POPC      H11B          -22.4952208738       11.6806088606      -17.5109096473  MEMB      97              0.0000000000
     12856       103  POPC      P             -20.9432817390       14.5857951333      -17.7018281236  MEMB      97              0.0000000000
     12857       103  POPC      O13           -20.9769941090       15.7115037830      -18.6437076238  MEMB      97              0.0000000000
     12858       103  POPC      O14           -19.6514566422       14.1086780681      -17.1737926089  MEMB      97              0.0000000000
     12859       103  POPC      O12           -21.6360218352       13.4297474108      -18.4800653834  MEMB      97              0.0000000000
     12860       103  POPC      O11           -21.9758748866       14.8936023893      -16.5363599859  MEMB      97              0.0000000000
     12861       103  POPC      C1            -23.3138095849       15.2260374499      -16.8260007369  MEMB      97              0.0000000000
     12862       103  POPC      HA            -23.7386619718       14.6469895940      -17.6736594131  MEMB      97              0.0000000000
     12863       103  POPC      HB            -23.2491440587       16.3177448657      -17.0217410184  MEMB      97              0.0000000000
     12864       103  POPC      C2            -24.1705918112       14.8445458392      -15.5067962649  MEMB      97              0.0000000000
     12865       103  POPC      HS            -25.1809238682       15.2875194030      -15.6384193738  MEMB      97              0.0000000000
     12866       103  POPC      O21           -23.6041612539       15.4105554570      -14.3669978185  MEMB      97              0.0000000000
     12867       103  POPC      C21           -24.1973021404       15.4506416733      -13.2173777074  MEMB      97              0.0000000000
     12868       103  POPC      O22           -25.3612527594       15.2704739462      -12.9461776311  MEMB      97              0.0000000000
     12869       103  POPC      C22           -23.2333441749       16.0572816961      -12.1443685678  MEMB      97              0.0000000000
     12870       103  POPC      H2R           -23.8214734966       16.6632088674      -11.4223737431  MEMB      97              0.0000000000
     12871       103  POPC      H2S           -22.5261908095       16.7737143989      -12.6144528676  MEMB      97              0.0000000000
     12872       103  POPC      C3            -24.2042050468       13.3045568397      -15.3469123268  MEMB      97              0.0000000000
     12873       103  POPC      HX            -24.3950953239       12.8406697745      -16.3382201164  MEMB      97              0.0000000000
     12874       103  POPC      HY            -24.9688213325       12.9042687953      -14.6473037287  MEMB      97              0.0000000000
     12875       103  POPC      O31           -22.9016727288       12.9077680356      -14.9196258020  MEMB      97              0.0000000000
     12876       103  POPC      C31           -22.8571928231       11.7252883085      -14.2353632421  MEMB      97              0.0000000000
     12877       103  POPC      O32           -23.8046124130       11.0133460175      -13.9453026888  MEMB      97              0.0000000000
     12878       103  POPC      C32           -21.3469850782       11.4295206931      -13.8370540583  MEMB      97              0.0000000000
     12879       103  POPC      H2X           -20.8340673922       12.4147026529      -13.8115030794  MEMB      97              0.0000000000
     12880       103  POPC      H2Y           -20.8081789373       10.7703575967      -14.5508555427  MEMB      97              0.0000000000
     12881       103  POPC      C23           -22.4662771303       15.0285613502      -11.2541745381  MEMB      97              0.0000000000
     12882       103  POPC      H3R           -21.7459955023       15.5888128863      -10.6204290008  MEMB      97              0.0000000000
     12883       103  POPC      H3S           -21.8572961269       14.3515024681      -11.8906132689  MEMB      97              0.0000000000
     12884       103  POPC      C24           -23.3636314110       14.1234771368      -10.4040727673  MEMB      97              0.0000000000
     12885       103  POPC      H4R           -23.8465229634       13.3007814598      -10.9735533710  MEMB      97              0.0000000000
     12886       103  POPC      H4S           -24.1903014743       14.8036023516      -10.1068056619  MEMB      97              0.0000000000
     12887       103  POPC      C25           -22.7338259277       13.5962221082       -9.1349776311  MEMB      97              0.0000000000
     12888       103  POPC      H5R           -22.7293599803       14.3394070783       -8.3091584375  MEMB      97              0.0000000000
     12889       103  POPC      H5S           -21.6760400082       13.3594443121       -9.3785885720  MEMB      97              0.0000000000
     12890       103  POPC      C26           -23.3749274341       12.2545603970       -8.6321240113  MEMB      97              0.0000000000
     12891       103  POPC      H6R           -22.5710082113       11.7030333664       -8.0993458227  MEMB      97              0.0000000000
     12892       103  POPC      H6S           -23.5771606462       11.5070921394       -9.4288133146  MEMB      97              0.0000000000
     12893       103  POPC      C27           -24.5428049934       12.5527319900       -7.7546871042  MEMB      97              0.0000000000
     12894       103  POPC      H7R           -25.2077092050       13.2762307594       -8.2731203001  MEMB      97              0.0000000000
     12895       103  POPC      H7S           -24.2350782266       13.0086610648       -6.7894131189  MEMB      97              0.0000000000
     12896       103  POPC      C28           -25.4105663823       11.3834025328       -7.3638507893  MEMB      97              0.0000000000
     12897       103  POPC      H8R           -24.9070156737       10.9891711389       -6.4553688677  MEMB      97              0.0000000000
     12898       103  POPC      H8S           -25.3409101124       10.5775012617       -8.1254224652  MEMB      97              0.0000000000
     12899       103  POPC      C29           -26.8940217990       11.4477461544       -7.0303907442  MEMB      97              0.0000000000
     12900       103  POPC      H91           -27.5397206571       11.7158780125       -7.8796130802  MEMB      97              0.0000000000
     12901       103  POPC      C210          -27.4088628540       11.2770742162       -5.7518701793  MEMB      97              0.0000000000
     12902       103  POPC      H101          -28.4792098647       11.4939987738       -5.6203369602  MEMB      97              0.0000000000
     12903       103  POPC      C211          -26.4730365439       11.0258627349       -4.5403727746  MEMB      97              0.0000000000
     12904       103  POPC      H11R          -25.5121386716       10.4811230191       -4.6597663788  MEMB      97              0.0000000000
     12905       103  POPC      H11S          -27.0369810050       10.4447042419       -3.7797528690  MEMB      97              0.0000000000
     12906       103  POPC      C212          -25.9267700179       12.4115059691       -4.0030145971  MEMB      97              0.0000000000
     12907       103  POPC      H12R          -25.4602755499       12.8981221144       -4.8861388087  MEMB      97              0.0000000000
     12908       103  POPC      H12S          -25.0920769203       12.1207649577       -3.3299041183  MEMB      97              0.0000000000
     12909       103  POPC      C213          -26.9297815594       13.3448872007       -3.2830772084  MEMB      97              0.0000000000
     12910       103  POPC      H13R          -26.8004737869       13.1456728501       -2.1977601696  MEMB      97              0.0000000000
     12911       103  POPC      H13S          -27.9799165360       13.2426321091       -3.6310446852  MEMB      97              0.0000000000
     12912       103  POPC      C214          -26.4158663761       14.8104941412       -3.5205597899  MEMB      97              0.0000000000
     12913       103  POPC      H14R          -27.0446928883       15.6087678303       -3.0714950333  MEMB      97              0.0000000000
     12914       103  POPC      H14S          -26.6339347044       15.0099803682       -4.5915266863  MEMB      97              0.0000000000
     12915       103  POPC      C215          -24.9373418419       15.0254295957       -3.1596404887  MEMB      97              0.0000000000
     12916       103  POPC      H15R          -24.3022632355       14.5758140462       -3.9526362240  MEMB      97              0.0000000000
     12917       103  POPC      H15S          -24.7202413838       14.5142600928       -2.1974072236  MEMB      97              0.0000000000
     12918       103  POPC      C216          -24.7311954029       16.4930277651       -2.9463888991  MEMB      97              0.0000000000
     12919       103  POPC      H16R          -25.4729611253       16.9226694049       -2.2396250523  MEMB      97              0.0000000000
     12920       103  POPC      H16S          -24.7121874844       17.0864418216       -3.8854402144  MEMB      97              0.0000000000
     12921       103  POPC      C217          -23.3965656504       16.6232154689       -2.1607864951  MEMB      97              0.0000000000
     12922       103  POPC      H17R          -22.5368437048       16.2420227204       -2.7523024796  MEMB      97              0.0000000000
     12923       103  POPC      H17S          -23.5420017583       16.0982256543       -1.1925121418  MEMB      97              0.0000000000
     12924       103  POPC      C218          -22.9455309964       18.0955143744       -1.9369158992  MEMB      97              0.0000000000
     12925       103  POPC      H18R          -23.8092696848       18.7838766613       -1.8167747864  MEMB      97              0.0000000000
     12926       103  POPC      H18S          -22.3046341718       18.4475901751       -2.7733447449  MEMB      97              0.0000000000
     12927       103  POPC      H18T          -22.2783542266       18.2219489954       -1.0575916459  MEMB      97              0.0000000000
     12928       103  POPC      C33           -21.1280168840       11.0061536137      -12.3870443594  MEMB      97              0.0000000000
     12929       103  POPC      H3X           -21.2979201343        9.9086630188      -12.4181676976  MEMB      97              0.0000000000
     12930       103  POPC      H3Y           -21.7893037828       11.5188405238      -11.6561735371  MEMB      97              0.0000000000
     12931       103  POPC      C34           -19.7089521451       11.3098482255      -11.8749832082  MEMB      97              0.0000000000
     12932       103  POPC      H4X           -19.4989544908       12.3731000219      -12.1193551231  MEMB      97              0.0000000000
     12933       103  POPC      H4Y           -19.0196331696       10.6470829853      -12.4405831393  MEMB      97              0.0000000000
     12934       103  POPC      C35           -19.6234992055       10.9307411793      -10.3298373685  MEMB      97              0.0000000000
     12935       103  POPC      H5X           -20.1575759754        9.9797606280      -10.1183680687  MEMB      97              0.0000000000
     12936       103  POPC      H5Y           -20.3206556522       11.6643441940       -9.8714482215  MEMB      97              0.0000000000
     12937       103  POPC      C36           -18.2605926705       11.2245824673       -9.7725641642  MEMB      97              0.0000000000
     12938       103  POPC      H6X           -18.2471974559       12.3270598086       -9.6358696788  MEMB      97              0.0000000000
     12939       103  POPC      H6Y           -17.4583325933       10.8743051605      -10.4566733816  MEMB      97              0.0000000000
     12940       103  POPC      C37           -17.9262840022       10.5203513242       -8.4398661204  MEMB      97              0.0000000000
     12941       103  POPC      H7X           -17.0241661706       11.0032299076       -8.0070466147  MEMB      97              0.0000000000
     12942       103  POPC      H7Y           -17.7599403308        9.4288345010       -8.5633241444  MEMB      97              0.0000000000
     12943       103  POPC      C38           -19.0958670652       10.5164847459       -7.4627349167  MEMB      97              0.0000000000
     12944       103  POPC      H8X           -18.8789670446        9.8578019412       -6.5947416886  MEMB      97              0.0000000000
     12945       103  POPC      H8Y           -20.0684294258       10.1001393115       -7.8019986284  MEMB      97              0.0000000000
     12946       103  POPC      C39           -19.3887492122       11.8948511007       -6.9725828763  MEMB      97              0.0000000000
     12947       103  POPC      H9X           -20.0755042839       12.3815074945       -7.6977413595  MEMB      97              0.0000000000
     12948       103  POPC      H9Y           -18.3980459349       12.3963208811       -6.9357579005  MEMB      97              0.0000000000
     12949       103  POPC      C310          -20.1165430694       12.0351336485       -5.6254443881  MEMB      97              0.0000000000
     12950       103  POPC      H10X          -20.9826546974       11.3438619949       -5.7049112071  MEMB      97              0.0000000000
     12951       103  POPC      H10Y          -20.6509960239       12.9977551496       -5.4769837863  MEMB      97              0.0000000000
     12952       103  POPC      C311          -19.1632761387       11.8990051851       -4.4259225970  MEMB      97              0.0000000000
     12953       103  POPC      H11X          -18.2483076230       12.5290777469       -4.4131982648  MEMB      97              0.0000000000
     12954       103  POPC      H11Y          -18.8224369807       10.8415972461       -4.4197951987  MEMB      97              0.0000000000
     12955       103  POPC      C312          -19.8054095142       12.3031005651       -3.0103061482  MEMB      97              0.0000000000
     12956       103  POPC      H12X          -19.9157084500       13.4086114834       -3.0112316869  MEMB      97              0.0000000000
     12957       103  POPC      H12Y          -19.0730582653       11.8539672696       -2.3058471464  MEMB      97              0.0000000000
     12958       103  POPC      C313          -21.2042330050       11.6681603930       -2.8146579382  MEMB      97              0.0000000000
     12959       103  POPC      H13X          -21.2613545884       10.5881199471       -3.0687649244  MEMB      97              0.0000000000
     12960       103  POPC      H13Y          -21.9022056159       12.1030534591       -3.5616670511  MEMB      97              0.0000000000
     12961       103  POPC      C314          -21.8005747389       12.0900475065       -1.4279550966  MEMB      97              0.0000000000
     12962       103  POPC      H14X          -22.7704811015       11.6430233080       -1.1217336532  MEMB      97              0.0000000000
     12963       103  POPC      H14Y          -21.8719220767       13.1986298458       -1.4113436142  MEMB      97              0.0000000000
     12964       103  POPC      C315          -20.7801063197       11.7584083599       -0.2513780956  MEMB      97              0.0000000000
     12965       103  POPC      H15X          -19.7077491776       11.9918694123       -0.4241977123  MEMB      97              0.0000000000
     12966       103  POPC      H15Y          -20.9188340827       10.6591462042       -0.1695338781  MEMB      97              0.0000000000
     12967       103  POPC      C316          -21.1533548876       12.4225070035        1.1216804944  MEMB      97              0.0000000000
     12968       103  POPC      H16X          -20.2489420451       12.4132652004        1.7668727469  MEMB      97              0.0000000000
     12969       103  POPC      H16Y          -21.9567621783       11.8355666140        1.6160056634  MEMB      97              0.0000000000
     12970       103  POPC      H16Z          -21.5437181216       13.4426362443        0.9185205615  MEMB      97              0.0000000000
     12971       104  POPC      N              -3.3525022825      -25.4311521243      -19.3722843364  MEMB      98              0.0000000000
     12972       104  POPC      C12            -3.0201707105      -26.8636761102      -18.9963581174  MEMB      98              0.0000000000
     12973       104  POPC      H12A           -2.1063198250      -26.8122193245      -18.4230968329  MEMB      98              0.0000000000
     12974       104  POPC      H12B           -2.9683756631      -27.3714542099      -19.9481347208  MEMB      98              0.0000000000
     12975       104  POPC      C13            -2.3252592955      -24.7548443723      -20.2614365691  MEMB      98              0.0000000000
     12976       104  POPC      H13A           -1.3743068931      -25.1087259293      -19.8914944432  MEMB      98              0.0000000000
     12977       104  POPC      H13B           -2.4360496831      -25.1803739461      -21.2478695953  MEMB      98              0.0000000000
     12978       104  POPC      H13C           -2.4523831416      -23.6835358125      -20.3118117986  MEMB      98              0.0000000000
     12979       104  POPC      C14            -4.6257820228      -25.3097658117      -20.1694977898  MEMB      98              0.0000000000
     12980       104  POPC      H14A           -4.4958137475      -25.6960359972      -21.1696494812  MEMB      98              0.0000000000
     12981       104  POPC      H14B           -5.3740864929      -25.9533242104      -19.7310080214  MEMB      98              0.0000000000
     12982       104  POPC      H14C           -4.8581305545      -24.2551110138      -20.1803298117  MEMB      98              0.0000000000
     12983       104  POPC      C15            -3.5374511734      -24.6592651909      -18.0844309792  MEMB      98              0.0000000000
     12984       104  POPC      H15A           -4.0394705047      -25.2454862591      -17.3289698671  MEMB      98              0.0000000000
     12985       104  POPC      H15B           -3.9595555851      -23.7250723053      -18.4243005120  MEMB      98              0.0000000000
     12986       104  POPC      H15C           -2.6063327579      -24.3138651257      -17.6600288617  MEMB      98              0.0000000000
     12987       104  POPC      C11            -4.1947916733      -27.5815417008      -18.3190497445  MEMB      98              0.0000000000
     12988       104  POPC      H11A           -4.6739283084      -26.9999330282      -17.5026672434  MEMB      98              0.0000000000
     12989       104  POPC      H11B           -3.8409443843      -28.4897913696      -17.7859497445  MEMB      98              0.0000000000
     12990       104  POPC      P              -6.3469226088      -28.9714162732      -18.7849984799  MEMB      98              0.0000000000
     12991       104  POPC      O13            -5.6362516954      -30.2009491349      -18.5840617565  MEMB      98              0.0000000000
     12992       104  POPC      O14            -7.4238359343      -28.8940331862      -19.8047799862  MEMB      98              0.0000000000
     12993       104  POPC      O12            -5.2443306412      -27.9232344579      -19.2592738948  MEMB      98              0.0000000000
     12994       104  POPC      O11            -6.7627317754      -28.4139124361      -17.3638283442  MEMB      98              0.0000000000
     12995       104  POPC      C1             -7.7000394518      -29.1330794590      -16.6069635267  MEMB      98              0.0000000000
     12996       104  POPC      HA             -7.8210895829      -30.1871102534      -16.9366406245  MEMB      98              0.0000000000
     12997       104  POPC      HB             -8.6694099368      -28.5955219807      -16.6822901680  MEMB      98              0.0000000000
     12998       104  POPC      C2             -7.5314600385      -29.1020435928      -15.0125350945  MEMB      98              0.0000000000
     12999       104  POPC      HS             -8.5085312896      -29.4760727206      -14.6386965436  MEMB      98              0.0000000000
     13000       104  POPC      O21            -7.2554972446      -27.7948877009      -14.5725141153  MEMB      98              0.0000000000
     13001       104  POPC      C21            -7.7399108058      -27.5376698584      -13.2988872582  MEMB      98              0.0000000000
     13002       104  POPC      O22            -8.2935095221      -28.3211136308      -12.5356940516  MEMB      98              0.0000000000
     13003       104  POPC      C22            -7.4296860786      -26.0423696625      -13.0875637970  MEMB      98              0.0000000000
     13004       104  POPC      H2R            -8.0019765956      -25.7897184003      -12.1694290415  MEMB      98              0.0000000000
     13005       104  POPC      H2S            -7.7928585351      -25.4066371856      -13.9231903044  MEMB      98              0.0000000000
     13006       104  POPC      C3             -6.3278506093      -30.0152816767      -14.5697421175  MEMB      98              0.0000000000
     13007       104  POPC      HX             -6.4101639616      -30.8900699669      -15.2496620922  MEMB      98              0.0000000000
     13008       104  POPC      HY             -6.3903740384      -30.2120469902      -13.4780941925  MEMB      98              0.0000000000
     13009       104  POPC      O31            -5.0739374934      -29.3386146364      -14.8198025154  MEMB      98              0.0000000000
     13010       104  POPC      C31            -4.0303477814      -30.1589162451      -14.7034209544  MEMB      98              0.0000000000
     13011       104  POPC      O32            -4.0382134668      -31.3851938785      -14.5050957088  MEMB      98              0.0000000000
     13012       104  POPC      C32            -2.7489516852      -29.3130246652      -15.0154965419  MEMB      98              0.0000000000
     13013       104  POPC      H2X            -3.0807048376      -28.2941647461      -14.7219230455  MEMB      98              0.0000000000
     13014       104  POPC      H2Y            -2.5853108534      -29.2160799916      -16.1100944815  MEMB      98              0.0000000000
     13015       104  POPC      C23            -5.9273975680      -25.7974866118      -12.7309390996  MEMB      98              0.0000000000
     13016       104  POPC      H3R            -5.4001994082      -25.7565649057      -13.7080311872  MEMB      98              0.0000000000
     13017       104  POPC      H3S            -5.5754022668      -26.6569502146      -12.1212322820  MEMB      98              0.0000000000
     13018       104  POPC      C24            -5.6475669951      -24.4661229239      -11.9334553743  MEMB      98              0.0000000000
     13019       104  POPC      H4R            -6.2528955214      -23.6167292304      -12.3161152427  MEMB      98              0.0000000000
     13020       104  POPC      H4S            -4.5649578794      -24.2363801319      -12.0309070431  MEMB      98              0.0000000000
     13021       104  POPC      C25            -5.9784316335      -24.5280208588      -10.4376784927  MEMB      98              0.0000000000
     13022       104  POPC      H5R            -5.8194028659      -25.5763107192      -10.1058362803  MEMB      98              0.0000000000
     13023       104  POPC      H5S            -7.0743349042      -24.3913440723      -10.3166979113  MEMB      98              0.0000000000
     13024       104  POPC      C26            -5.2743412076      -23.5126893826       -9.6201228862  MEMB      98              0.0000000000
     13025       104  POPC      H6R            -5.8779149110      -23.4920874899       -8.6876024611  MEMB      98              0.0000000000
     13026       104  POPC      H6S            -5.3306386939      -22.5000585946      -10.0736979672  MEMB      98              0.0000000000
     13027       104  POPC      C27            -3.8976436445      -23.9580944394       -9.1514842226  MEMB      98              0.0000000000
     13028       104  POPC      H7R            -3.1797321343      -24.0966213311       -9.9879849645  MEMB      98              0.0000000000
     13029       104  POPC      H7S            -4.0429960855      -24.9926632105       -8.7735145746  MEMB      98              0.0000000000
     13030       104  POPC      C28            -3.2250437938      -22.9315151864       -8.2853325871  MEMB      98              0.0000000000
     13031       104  POPC      H8R            -3.3858149438      -21.9987422495       -8.8670617026  MEMB      98              0.0000000000
     13032       104  POPC      H8S            -2.1396633804      -23.1687192589       -8.2832167058  MEMB      98              0.0000000000
     13033       104  POPC      C29            -3.6277295263      -22.8585062524       -6.8628709849  MEMB      98              0.0000000000
     13034       104  POPC      H91            -4.6733777337      -22.5794625301       -6.6660095340  MEMB      98              0.0000000000
     13035       104  POPC      C210           -2.9392613850      -23.3062309099       -5.8140139716  MEMB      98              0.0000000000
     13036       104  POPC      H101           -3.4123285146      -23.3561383658       -4.8221886861  MEMB      98              0.0000000000
     13037       104  POPC      C211           -1.5760693977      -23.9753078833       -5.8093799965  MEMB      98              0.0000000000
     13038       104  POPC      H11R           -1.0345529276      -23.7305779478       -4.8706642944  MEMB      98              0.0000000000
     13039       104  POPC      H11S           -0.9586014452      -23.5449526360       -6.6266001901  MEMB      98              0.0000000000
     13040       104  POPC      C212           -1.6807414145      -25.4317509444       -6.1390644472  MEMB      98              0.0000000000
     13041       104  POPC      H12R           -0.6289187271      -25.7869407232       -6.1818513230  MEMB      98              0.0000000000
     13042       104  POPC      H12S           -2.1828303537      -25.6705420314       -7.1009409926  MEMB      98              0.0000000000
     13043       104  POPC      C213           -2.3417909008      -26.1703991515       -4.9879937865  MEMB      98              0.0000000000
     13044       104  POPC      H13R           -2.5206271865      -27.1459554626       -5.4886218476  MEMB      98              0.0000000000
     13045       104  POPC      H13S           -3.3484045417      -25.8174329112       -4.6774054468  MEMB      98              0.0000000000
     13046       104  POPC      C214           -1.4078164049      -26.4661029747       -3.7859566803  MEMB      98              0.0000000000
     13047       104  POPC      H14R           -1.2786564777      -25.5452290174       -3.1779846036  MEMB      98              0.0000000000
     13048       104  POPC      H14S           -0.3773179216      -26.5955220548       -4.1804747029  MEMB      98              0.0000000000
     13049       104  POPC      C215           -1.8468270881      -27.6827406351       -2.9055336406  MEMB      98              0.0000000000
     13050       104  POPC      H15R           -1.1611118296      -27.7445403534       -2.0335843240  MEMB      98              0.0000000000
     13051       104  POPC      H15S           -1.7701442006      -28.5897618827       -3.5425214255  MEMB      98              0.0000000000
     13052       104  POPC      C216           -3.3124514708      -27.5375013391       -2.4193367534  MEMB      98              0.0000000000
     13053       104  POPC      H16R           -3.8144937800      -28.1709774833       -3.1815586041  MEMB      98              0.0000000000
     13054       104  POPC      H16S           -3.7214341112      -26.5054931667       -2.3744604355  MEMB      98              0.0000000000
     13055       104  POPC      C217           -3.5936485359      -28.1760751450       -1.0479332855  MEMB      98              0.0000000000
     13056       104  POPC      H17R           -2.9226414010      -29.0367651606       -0.8398881900  MEMB      98              0.0000000000
     13057       104  POPC      H17S           -4.6384816149      -28.5451592623       -0.9677959730  MEMB      98              0.0000000000
     13058       104  POPC      C218           -3.4040968827      -27.1511025682        0.1289849765  MEMB      98              0.0000000000
     13059       104  POPC      H18R           -2.4560815167      -26.6040936757       -0.0617208655  MEMB      98              0.0000000000
     13060       104  POPC      H18S           -3.3041462008      -27.8088639129        1.0187491677  MEMB      98              0.0000000000
     13061       104  POPC      H18T           -4.3423153062      -26.5566390323        0.1028953334  MEMB      98              0.0000000000
     13062       104  POPC      C33            -1.5643523759      -29.8639246949      -14.1162553038  MEMB      98              0.0000000000
     13063       104  POPC      H3X            -0.6889553957      -30.0227567438      -14.7816676001  MEMB      98              0.0000000000
     13064       104  POPC      H3Y            -1.7773232838      -30.7819591248      -13.5278872042  MEMB      98              0.0000000000
     13065       104  POPC      C34            -1.2109819863      -28.9381766481      -12.9148836393  MEMB      98              0.0000000000
     13066       104  POPC      H4X            -0.8306772909      -27.9510256951      -13.2543278418  MEMB      98              0.0000000000
     13067       104  POPC      H4Y            -0.3579323516      -29.4209559926      -12.3918618024  MEMB      98              0.0000000000
     13068       104  POPC      C35            -2.3513642588      -28.6965759069      -11.8655371038  MEMB      98              0.0000000000
     13069       104  POPC      H5X            -3.1508742487      -27.9991856471      -12.1953121680  MEMB      98              0.0000000000
     13070       104  POPC      H5Y            -1.7991585406      -28.1166005666      -11.0954604152  MEMB      98              0.0000000000
     13071       104  POPC      C36            -2.9603151953      -29.9721431334      -11.3179878448  MEMB      98              0.0000000000
     13072       104  POPC      H6X            -2.0592911684      -30.6052826168      -11.1709791067  MEMB      98              0.0000000000
     13073       104  POPC      H6Y            -3.5347976154      -30.4626665860      -12.1326520180  MEMB      98              0.0000000000
     13074       104  POPC      C37            -3.8066458136      -29.7595866407      -10.0208223916  MEMB      98              0.0000000000
     13075       104  POPC      H7X            -3.0875590549      -29.3484259440       -9.2804285481  MEMB      98              0.0000000000
     13076       104  POPC      H7Y            -4.2790263635      -30.7046205887       -9.6771822496  MEMB      98              0.0000000000
     13077       104  POPC      C38            -4.9447629933      -28.7162422057      -10.1614705470  MEMB      98              0.0000000000
     13078       104  POPC      H8X            -5.3782947173      -28.6884817244      -11.1840160738  MEMB      98              0.0000000000
     13079       104  POPC      H8Y            -4.5630415566      -27.6940439616       -9.9523746896  MEMB      98              0.0000000000
     13080       104  POPC      C39            -6.0789202521      -29.0262943255       -9.1232125141  MEMB      98              0.0000000000
     13081       104  POPC      H9X            -6.3367762259      -30.1045723767       -9.1949618761  MEMB      98              0.0000000000
     13082       104  POPC      H9Y            -6.9450380265      -28.3851180330       -9.3934976390  MEMB      98              0.0000000000
     13083       104  POPC      C310           -5.7045747630      -28.7017424738       -7.6400588380  MEMB      98              0.0000000000
     13084       104  POPC      H10X           -5.4538987386      -27.6193928049       -7.6386427753  MEMB      98              0.0000000000
     13085       104  POPC      H10Y           -4.8554426196      -29.3247371189       -7.2862602432  MEMB      98              0.0000000000
     13086       104  POPC      C311           -6.9933736307      -28.8102787568       -6.6845089914  MEMB      98              0.0000000000
     13087       104  POPC      H11X           -7.2846005180      -29.8775923665       -6.5827800978  MEMB      98              0.0000000000
     13088       104  POPC      H11Y           -7.8685505290      -28.2951241475       -7.1350661281  MEMB      98              0.0000000000
     13089       104  POPC      C312           -6.8451710125      -28.1382219232       -5.3023400408  MEMB      98              0.0000000000
     13090       104  POPC      H12X           -6.2914829398      -28.8191573439       -4.6211080245  MEMB      98              0.0000000000
     13091       104  POPC      H12Y           -7.9294110738      -28.0736903859       -5.0687159151  MEMB      98              0.0000000000
     13092       104  POPC      C313           -6.2355134099      -26.7623869502       -5.3955892975  MEMB      98              0.0000000000
     13093       104  POPC      H13X           -6.6825286228      -26.0756331865       -6.1458339508  MEMB      98              0.0000000000
     13094       104  POPC      H13Y           -5.1533770748      -26.9642203057       -5.5458058848  MEMB      98              0.0000000000
     13095       104  POPC      C314           -6.4951415043      -25.9658016152       -4.0698386388  MEMB      98              0.0000000000
     13096       104  POPC      H14X           -5.9544037256      -26.5535487656       -3.2975199613  MEMB      98              0.0000000000
     13097       104  POPC      H14Y           -7.5965260190      -26.0488487696       -3.9499372525  MEMB      98              0.0000000000
     13098       104  POPC      C315           -5.9965475592      -24.5603837851       -4.0401179797  MEMB      98              0.0000000000
     13099       104  POPC      H15X           -5.9309725791      -24.2026724965       -5.0899097734  MEMB      98              0.0000000000
     13100       104  POPC      H15Y           -4.9516120550      -24.4766618766       -3.6721219867  MEMB      98              0.0000000000
     13101       104  POPC      C316           -6.7596198523      -23.7512010215       -3.1192563675  MEMB      98              0.0000000000
     13102       104  POPC      H16X           -6.4840771781      -22.6838960285       -3.2580267066  MEMB      98              0.0000000000
     13103       104  POPC      H16Y           -6.6057626054      -24.0044859966       -2.0485102938  MEMB      98              0.0000000000
     13104       104  POPC      H16Z           -7.8069746753      -23.9796672047       -3.4110989756  MEMB      98              0.0000000000
     13105       105  POPC      N             -26.8412324718      -12.5957680730      -19.4786806592  MEMB      99              0.0000000000
     13106       105  POPC      C12           -26.4691306358      -13.6444674447      -18.4611605808  MEMB      99              0.0000000000
     13107       105  POPC      H12A          -26.9264279961      -14.5715171629      -18.7739834595  MEMB      99              0.0000000000
     13108       105  POPC      H12B          -26.9830332740      -13.3009753835      -17.5755436612  MEMB      99              0.0000000000
     13109       105  POPC      C13           -26.3163633037      -13.1289294304      -20.8117823699  MEMB      99              0.0000000000
     13110       105  POPC      H13A          -26.7735969047      -14.0731365360      -21.0683175853  MEMB      99              0.0000000000
     13111       105  POPC      H13B          -26.6673066284      -12.4112268741      -21.5385159840  MEMB      99              0.0000000000
     13112       105  POPC      H13C          -25.2457186914      -13.2442722479      -20.7292225917  MEMB      99              0.0000000000
     13113       105  POPC      C14           -28.3451472553      -12.5025024491      -19.5531876054  MEMB      99              0.0000000000
     13114       105  POPC      H14A          -28.8266540389      -13.4645764595      -19.6478725300  MEMB      99              0.0000000000
     13115       105  POPC      H14B          -28.6193089170      -12.0092146934      -18.6323713640  MEMB      99              0.0000000000
     13116       105  POPC      H14C          -28.6299948392      -11.8835660284      -20.3911490687  MEMB      99              0.0000000000
     13117       105  POPC      C15           -26.2062211523      -11.2666822657      -19.1889072013  MEMB      99              0.0000000000
     13118       105  POPC      H15A          -26.3360752332      -10.9465501906      -18.1656509538  MEMB      99              0.0000000000
     13119       105  POPC      H15B          -26.7005735484      -10.5176057529      -19.7896566654  MEMB      99              0.0000000000
     13120       105  POPC      H15C          -25.1646639015      -11.3463083072      -19.4631666664  MEMB      99              0.0000000000
     13121       105  POPC      C11           -24.9757110633      -14.0268789906      -18.3026080323  MEMB      99              0.0000000000
     13122       105  POPC      H11A          -24.6670706538      -14.5754592255      -19.2180979610  MEMB      99              0.0000000000
     13123       105  POPC      H11B          -24.9183130982      -14.7689960963      -17.4778119871  MEMB      99              0.0000000000
     13124       105  POPC      P             -22.7161377150      -12.8461270409      -18.6956891231  MEMB      99              0.0000000000
     13125       105  POPC      O13           -22.8835408340      -12.4796729340      -20.1102797580  MEMB      99              0.0000000000
     13126       105  POPC      O14           -21.9469980587      -14.0511693642      -18.4577529760  MEMB      99              0.0000000000
     13127       105  POPC      O12           -24.1257066469      -13.0052926218      -17.9216680063  MEMB      99              0.0000000000
     13128       105  POPC      O11           -21.9240446608      -11.5966927852      -18.0182836478  MEMB      99              0.0000000000
     13129       105  POPC      C1            -22.5065808385      -10.4717638161      -17.4389783205  MEMB      99              0.0000000000
     13130       105  POPC      HA            -23.6044915944      -10.3436468931      -17.5507767261  MEMB      99              0.0000000000
     13131       105  POPC      HB            -22.0464738781       -9.5380197661      -17.8272370216  MEMB      99              0.0000000000
     13132       105  POPC      C2            -22.3498367412      -10.6232523036      -15.8678395912  MEMB      99              0.0000000000
     13133       105  POPC      HS            -21.2725913346      -10.6699760211      -15.6001081111  MEMB      99              0.0000000000
     13134       105  POPC      O21           -23.0672064510      -11.8159411090      -15.5274069183  MEMB      99              0.0000000000
     13135       105  POPC      C21           -22.6677984742      -12.5058348638      -14.4741955373  MEMB      99              0.0000000000
     13136       105  POPC      O22           -22.0058539313      -12.1425257914      -13.5000848090  MEMB      99              0.0000000000
     13137       105  POPC      C22           -23.2825573792      -13.8984066021      -14.6226106510  MEMB      99              0.0000000000
     13138       105  POPC      H2R           -22.6961066330      -14.2500274557      -15.4982585220  MEMB      99              0.0000000000
     13139       105  POPC      H2S           -24.3643464320      -13.9425250566      -14.8718232957  MEMB      99              0.0000000000
     13140       105  POPC      C3            -22.7608678922       -9.4175341473      -15.0172878191  MEMB      99              0.0000000000
     13141       105  POPC      HX            -22.0461581587       -8.6250695711      -15.3263359178  MEMB      99              0.0000000000
     13142       105  POPC      HY            -22.6107227607       -9.6250563487      -13.9362176701  MEMB      99              0.0000000000
     13143       105  POPC      O31           -24.0893216805       -8.9901895843      -15.4234058173  MEMB      99              0.0000000000
     13144       105  POPC      C31           -24.5970969289       -8.1600321313      -14.4797384926  MEMB      99              0.0000000000
     13145       105  POPC      O32           -23.9947768620       -7.6137034524      -13.6407071335  MEMB      99              0.0000000000
     13146       105  POPC      C32           -26.1008585350       -8.0567835848      -14.6760779553  MEMB      99              0.0000000000
     13147       105  POPC      H2X           -26.2619011095       -8.5057236025      -15.6794917920  MEMB      99              0.0000000000
     13148       105  POPC      H2Y           -26.3491949370       -6.9780319047      -14.7706546439  MEMB      99              0.0000000000
     13149       105  POPC      C23           -22.9892050079      -14.7660496903      -13.4258719941  MEMB      99              0.0000000000
     13150       105  POPC      H3R           -21.8995801053      -14.7014110627      -13.2188439702  MEMB      99              0.0000000000
     13151       105  POPC      H3S           -23.3026136438      -15.7858142934      -13.7359944330  MEMB      99              0.0000000000
     13152       105  POPC      C24           -23.8319797773      -14.3637587897      -12.2286323252  MEMB      99              0.0000000000
     13153       105  POPC      H4R           -24.9272878008      -14.4210198899      -12.4056708960  MEMB      99              0.0000000000
     13154       105  POPC      H4S           -23.4057802446      -13.3489790666      -12.0773148063  MEMB      99              0.0000000000
     13155       105  POPC      C25           -23.5767110600      -15.1031220075      -10.8801276827  MEMB      99              0.0000000000
     13156       105  POPC      H5R           -23.9733798954      -14.4976149235      -10.0373133791  MEMB      99              0.0000000000
     13157       105  POPC      H5S           -22.4779117199      -15.2484994607      -10.8037955813  MEMB      99              0.0000000000
     13158       105  POPC      C26           -24.1515122003      -16.4971869383      -10.7884214564  MEMB      99              0.0000000000
     13159       105  POPC      H6R           -23.7903222393      -17.0988610645      -11.6497291814  MEMB      99              0.0000000000
     13160       105  POPC      H6S           -25.2557736213      -16.6057469057      -10.7323655404  MEMB      99              0.0000000000
     13161       105  POPC      C27           -23.8156721696      -17.1764929278       -9.4042934928  MEMB      99              0.0000000000
     13162       105  POPC      H7R           -22.7359121604      -16.9569157426       -9.2620783411  MEMB      99              0.0000000000
     13163       105  POPC      H7S           -23.9419751751      -18.2699428720       -9.5550786748  MEMB      99              0.0000000000
     13164       105  POPC      C28           -24.6882757093      -16.6201124930       -8.2441707276  MEMB      99              0.0000000000
     13165       105  POPC      H8R           -25.7145737525      -16.9146763198       -8.5511978603  MEMB      99              0.0000000000
     13166       105  POPC      H8S           -24.5828655782      -15.5354343418       -8.0281087116  MEMB      99              0.0000000000
     13167       105  POPC      C29           -24.2629757221      -17.4222759767       -7.0225017992  MEMB      99              0.0000000000
     13168       105  POPC      H91           -23.2034554148      -17.6663513025       -6.8556379689  MEMB      99              0.0000000000
     13169       105  POPC      C210          -25.1469669617      -17.6785478972       -6.0828851254  MEMB      99              0.0000000000
     13170       105  POPC      H101          -24.7611629902      -18.1746381381       -5.1800832618  MEMB      99              0.0000000000
     13171       105  POPC      C211          -26.5739036617      -17.1889289915       -6.0766409320  MEMB      99              0.0000000000
     13172       105  POPC      H11R          -27.2926276697      -17.8252001610       -6.6360299180  MEMB      99              0.0000000000
     13173       105  POPC      H11S          -26.6587504239      -16.2113068865       -6.5975795555  MEMB      99              0.0000000000
     13174       105  POPC      C212          -26.9394094739      -16.7636974859       -4.6143482669  MEMB      99              0.0000000000
     13175       105  POPC      H12R          -26.9370181552      -17.6843087820       -3.9924232024  MEMB      99              0.0000000000
     13176       105  POPC      H12S          -27.9569374828      -16.3244203817       -4.5369314533  MEMB      99              0.0000000000
     13177       105  POPC      C213          -26.0096487794      -15.8293808781       -3.8898586264  MEMB      99              0.0000000000
     13178       105  POPC      H13R          -25.8427346203      -14.8767251767       -4.4365827580  MEMB      99              0.0000000000
     13179       105  POPC      H13S          -24.9923473352      -16.2727179567       -3.8362745877  MEMB      99              0.0000000000
     13180       105  POPC      C214          -26.4094950890      -15.5013791741       -2.4245028005  MEMB      99              0.0000000000
     13181       105  POPC      H14R          -25.6720523646      -14.7178896024       -2.1476574469  MEMB      99              0.0000000000
     13182       105  POPC      H14S          -26.2232107558      -16.3956716580       -1.7921574204  MEMB      99              0.0000000000
     13183       105  POPC      C215          -27.7824090955      -14.9442741333       -2.3200848043  MEMB      99              0.0000000000
     13184       105  POPC      H15R          -27.8642124379      -14.6324028975       -1.2568979300  MEMB      99              0.0000000000
     13185       105  POPC      H15S          -28.5331523846      -15.7034149817       -2.6273480510  MEMB      99              0.0000000000
     13186       105  POPC      C216          -28.1182590929      -13.8026579087       -3.2576223294  MEMB      99              0.0000000000
     13187       105  POPC      H16R          -29.2099627409      -13.6652860140       -3.1038903118  MEMB      99              0.0000000000
     13188       105  POPC      H16S          -28.1462738691      -14.1366567884       -4.3168579480  MEMB      99              0.0000000000
     13189       105  POPC      C217          -27.3071960672      -12.4477883472       -3.1016632726  MEMB      99              0.0000000000
     13190       105  POPC      H17R          -27.5585800502      -11.7094138759       -3.8928202117  MEMB      99              0.0000000000
     13191       105  POPC      H17S          -26.2426695388      -12.6365029684       -3.3575740355  MEMB      99              0.0000000000
     13192       105  POPC      C218          -27.5404115649      -11.8299383233       -1.7589495055  MEMB      99              0.0000000000
     13193       105  POPC      H18R          -27.3341094063      -12.5521999699       -0.9403555616  MEMB      99              0.0000000000
     13194       105  POPC      H18S          -28.6125048928      -11.5719911587       -1.6233024937  MEMB      99              0.0000000000
     13195       105  POPC      H18T          -26.9858930956      -10.8796334829       -1.6048365282  MEMB      99              0.0000000000
     13196       105  POPC      C33           -26.9748917497       -8.6913765137      -13.5563532005  MEMB      99              0.0000000000
     13197       105  POPC      H3X           -27.9429825269       -8.1590637329      -13.6736759982  MEMB      99              0.0000000000
     13198       105  POPC      H3Y           -26.6586721227       -8.5109379834      -12.5067019074  MEMB      99              0.0000000000
     13199       105  POPC      C34           -27.2989956299      -10.2035911478      -13.6316359355  MEMB      99              0.0000000000
     13200       105  POPC      H4X           -27.5224956390      -10.4206184813      -14.6980639599  MEMB      99              0.0000000000
     13201       105  POPC      H4Y           -28.2629081488      -10.4151606650      -13.1213108694  MEMB      99              0.0000000000
     13202       105  POPC      C35           -26.3271334442      -11.2306947476      -13.1366263376  MEMB      99              0.0000000000
     13203       105  POPC      H5X           -25.5278787587      -11.4516854492      -13.8760016345  MEMB      99              0.0000000000
     13204       105  POPC      H5Y           -27.0055817850      -12.1008872432      -13.0070353530  MEMB      99              0.0000000000
     13205       105  POPC      C36           -25.7189815707      -11.0931689807      -11.7531417228  MEMB      99              0.0000000000
     13206       105  POPC      H6X           -25.0014709953      -10.2482729714      -11.8283102374  MEMB      99              0.0000000000
     13207       105  POPC      H6Y           -25.1055877742      -12.0133278446      -11.6464799258  MEMB      99              0.0000000000
     13208       105  POPC      C37           -26.6861460919      -10.9657559637      -10.5961665656  MEMB      99              0.0000000000
     13209       105  POPC      H7X           -27.3516945442      -11.8302602556      -10.3864071363  MEMB      99              0.0000000000
     13210       105  POPC      H7Y           -27.3645293811      -10.1190240490      -10.8352518888  MEMB      99              0.0000000000
     13211       105  POPC      C38           -25.9220182672      -10.5389214149       -9.3492981601  MEMB      99              0.0000000000
     13212       105  POPC      H8X           -26.6821219209      -10.3831943436       -8.5541175781  MEMB      99              0.0000000000
     13213       105  POPC      H8Y           -25.3896128393       -9.5942541550       -9.5911015672  MEMB      99              0.0000000000
     13214       105  POPC      C39           -24.9868277224      -11.6510676364       -8.8585616271  MEMB      99              0.0000000000
     13215       105  POPC      H9X           -24.1435646203      -12.0135777037       -9.4845133997  MEMB      99              0.0000000000
     13216       105  POPC      H9Y           -25.6097599979      -12.5439761983       -8.6372234149  MEMB      99              0.0000000000
     13217       105  POPC      C310          -24.3955513803      -11.3222859859       -7.4698317019  MEMB      99              0.0000000000
     13218       105  POPC      H10X          -25.1855659168      -10.7419590080       -6.9469373263  MEMB      99              0.0000000000
     13219       105  POPC      H10Y          -23.5546145075      -10.6389900413       -7.7152958365  MEMB      99              0.0000000000
     13220       105  POPC      C311          -23.9302831969      -12.5463540002       -6.7454888347  MEMB      99              0.0000000000
     13221       105  POPC      H11X          -23.2729220604      -13.1647501193       -7.3933960389  MEMB      99              0.0000000000
     13222       105  POPC      H11Y          -24.7344594713      -13.2128808293       -6.3668554338  MEMB      99              0.0000000000
     13223       105  POPC      C312          -23.2071497244      -11.9834612148       -5.4929945290  MEMB      99              0.0000000000
     13224       105  POPC      H12X          -23.7819780792      -11.1681430733       -5.0039654424  MEMB      99              0.0000000000
     13225       105  POPC      H12Y          -22.2137193856      -11.5631188779       -5.7589449514  MEMB      99              0.0000000000
     13226       105  POPC      C313          -22.7339096394      -13.0505241340       -4.5199802517  MEMB      99              0.0000000000
     13227       105  POPC      H13X          -22.0010108936      -13.7732763519       -4.9380828260  MEMB      99              0.0000000000
     13228       105  POPC      H13Y          -23.6395952191      -13.6767982170       -4.3722122875  MEMB      99              0.0000000000
     13229       105  POPC      C314          -22.3523522973      -12.5114678308       -3.1070706321  MEMB      99              0.0000000000
     13230       105  POPC      H14X          -22.2456282257      -13.3467328233       -2.3823189372  MEMB      99              0.0000000000
     13231       105  POPC      H14Y          -23.0829033165      -11.7778949009       -2.7039731930  MEMB      99              0.0000000000
     13232       105  POPC      C315          -21.0600618664      -11.6549950607       -3.1669897038  MEMB      99              0.0000000000
     13233       105  POPC      H15X          -21.2638558564      -10.8116334217       -3.8609126179  MEMB      99              0.0000000000
     13234       105  POPC      H15Y          -20.1642256334      -12.2102937232       -3.5183315783  MEMB      99              0.0000000000
     13235       105  POPC      C316          -20.7113564582      -11.0112025073       -1.8131389570  MEMB      99              0.0000000000
     13236       105  POPC      H16X          -19.8868897173      -10.3134515031       -2.0733667293  MEMB      99              0.0000000000
     13237       105  POPC      H16Y          -20.3354713879      -11.7550001606       -1.0784290815  MEMB      99              0.0000000000
     13238       105  POPC      H16Z          -21.6007639312      -10.4568114849       -1.4444566280  MEMB      99              0.0000000000
     13239       106  POPC      N              16.1216709488       27.0186079041      -18.8716758461  MEMB      100             0.0000000000
     13240       106  POPC      C12            15.0915431181       26.0300145798      -18.3448735035  MEMB      100             0.0000000000
     13241       106  POPC      H12A           14.1315887573       26.4764007746      -18.5584784588  MEMB      100             0.0000000000
     13242       106  POPC      H12B           15.0820801021       25.9621565010      -17.2670489611  MEMB      100             0.0000000000
     13243       106  POPC      C13            17.5149726980       26.5365306141      -18.5112107903  MEMB      100             0.0000000000
     13244       106  POPC      H13A           17.4042703060       26.2674535517      -17.4711422526  MEMB      100             0.0000000000
     13245       106  POPC      H13B           17.7368592919       25.6594848630      -19.1010896118  MEMB      100             0.0000000000
     13246       106  POPC      H13C           18.1271500793       27.4229535589      -18.5879793662  MEMB      100             0.0000000000
     13247       106  POPC      C14            16.0537936945       27.1399004235      -20.3584084157  MEMB      100             0.0000000000
     13248       106  POPC      H14A           16.3196104855       26.2393908722      -20.8920973220  MEMB      100             0.0000000000
     13249       106  POPC      H14B           15.0897701126       27.4478935817      -20.7355009915  MEMB      100             0.0000000000
     13250       106  POPC      H14C           16.6889004932       27.9864454361      -20.5738170464  MEMB      100             0.0000000000
     13251       106  POPC      C15            15.8394230776       28.4256200764      -18.3457927817  MEMB      100             0.0000000000
     13252       106  POPC      H15A           16.6269470135       29.1315024558      -18.5647359788  MEMB      100             0.0000000000
     13253       106  POPC      H15B           15.9051313512       28.4348396639      -17.2678329060  MEMB      100             0.0000000000
     13254       106  POPC      H15C           15.0038384904       28.9094029088      -18.8296861947  MEMB      100             0.0000000000
     13255       106  POPC      C11            15.0886112427       24.6273448866      -18.9908246892  MEMB      100             0.0000000000
     13256       106  POPC      H11A           15.0516081862       24.7512284734      -20.0942759098  MEMB      100             0.0000000000
     13257       106  POPC      H11B           14.2377012775       24.0489006815      -18.5716880175  MEMB      100             0.0000000000
     13258       106  POPC      P              16.4626204624       22.4115190776      -19.1677493676  MEMB      100             0.0000000000
     13259       106  POPC      O13            17.7557312306       22.0109712653      -18.5443969446  MEMB      100             0.0000000000
     13260       106  POPC      O14            16.3922537660       22.2695595096      -20.6582328921  MEMB      100             0.0000000000
     13261       106  POPC      O12            16.3158309410       23.9118138597      -18.7582548671  MEMB      100             0.0000000000
     13262       106  POPC      O11            15.1987580136       21.7560971307      -18.4485798992  MEMB      100             0.0000000000
     13263       106  POPC      C1             15.3572278543       20.6010839454      -17.7346778540  MEMB      100             0.0000000000
     13264       106  POPC      HA             16.3313258920       20.0692637427      -17.6834778371  MEMB      100             0.0000000000
     13265       106  POPC      HB             14.6566805629       19.8522465572      -18.1622257799  MEMB      100             0.0000000000
     13266       106  POPC      C2             14.9920422038       20.6725566986      -16.2590944174  MEMB      100             0.0000000000
     13267       106  POPC      HS             14.0710348525       21.2438017362      -16.0146661040  MEMB      100             0.0000000000
     13268       106  POPC      O21            16.0893882161       21.2459350684      -15.5499573997  MEMB      100             0.0000000000
     13269       106  POPC      C21            15.8582089991       22.2999399309      -14.6993377457  MEMB      100             0.0000000000
     13270       106  POPC      O22            14.6956039772       22.6990720603      -14.3908074104  MEMB      100             0.0000000000
     13271       106  POPC      C22            17.1703012677       22.7464535373      -14.0527605473  MEMB      100             0.0000000000
     13272       106  POPC      H2R            17.9043803480       22.0106891089      -14.4453159308  MEMB      100             0.0000000000
     13273       106  POPC      H2S            17.2494206593       22.4695994517      -12.9797213202  MEMB      100             0.0000000000
     13274       106  POPC      C3             14.6899802344       19.2151278252      -15.7787127358  MEMB      100             0.0000000000
     13275       106  POPC      HX             15.4956351929       18.4927517654      -16.0305349920  MEMB      100             0.0000000000
     13276       106  POPC      HY             13.8101121897       18.7948821127      -16.3112039266  MEMB      100             0.0000000000
     13277       106  POPC      O31            14.4750763371       19.1753397232      -14.3253486003  MEMB      100             0.0000000000
     13278       106  POPC      C31            15.6571160165       18.8880636717      -13.6683058627  MEMB      100             0.0000000000
     13279       106  POPC      O32            16.7659224272       18.8840756105      -14.1555351095  MEMB      100             0.0000000000
     13280       106  POPC      C32            15.2795741552       18.7608933256      -12.1723383052  MEMB      100             0.0000000000
     13281       106  POPC      H2X            14.9573933405       17.7066436742      -12.0342147725  MEMB      100             0.0000000000
     13282       106  POPC      H2Y            14.4773493150       19.4941915495      -11.9420558701  MEMB      100             0.0000000000
     13283       106  POPC      C23            17.3525357064       24.2886601964      -14.1193092691  MEMB      100             0.0000000000
     13284       106  POPC      H3R            16.4811285627       24.7996886258      -13.6569019006  MEMB      100             0.0000000000
     13285       106  POPC      H3S            17.1627653680       24.5534090133      -15.1814843867  MEMB      100             0.0000000000
     13286       106  POPC      C24            18.6315287067       24.7931334444      -13.4958852506  MEMB      100             0.0000000000
     13287       106  POPC      H4R            18.9372370478       25.6959836771      -14.0666084639  MEMB      100             0.0000000000
     13288       106  POPC      H4S            19.2947505836       23.9428789197      -13.7633266575  MEMB      100             0.0000000000
     13289       106  POPC      C25            18.5967112746       24.9065951796      -11.9488506985  MEMB      100             0.0000000000
     13290       106  POPC      H5R            19.6853911724       24.9370364778      -11.7293743744  MEMB      100             0.0000000000
     13291       106  POPC      H5S            18.2029975543       23.9842663196      -11.4707088921  MEMB      100             0.0000000000
     13292       106  POPC      C26            17.6951432226       26.0722780371      -11.4909361983  MEMB      100             0.0000000000
     13293       106  POPC      H6R            16.6643105121       25.6579985798      -11.4821331313  MEMB      100             0.0000000000
     13294       106  POPC      H6S            17.8363910904       26.9035819185      -12.2143335748  MEMB      100             0.0000000000
     13295       106  POPC      C27            18.1900709304       26.5736938744      -10.1253418347  MEMB      100             0.0000000000
     13296       106  POPC      H7R            17.5180541660       27.4334576159       -9.9167249766  MEMB      100             0.0000000000
     13297       106  POPC      H7S            19.1769399892       27.0826438545      -10.1624981609  MEMB      100             0.0000000000
     13298       106  POPC      C28            18.1776424916       25.4726286377       -9.0491216907  MEMB      100             0.0000000000
     13299       106  POPC      H8R            18.7072959053       25.9279673624       -8.1851455633  MEMB      100             0.0000000000
     13300       106  POPC      H8S            18.7954710005       24.5772597883       -9.2747838436  MEMB      100             0.0000000000
     13301       106  POPC      C29            16.7810258766       25.0139483843       -8.7837467674  MEMB      100             0.0000000000
     13302       106  POPC      H91            16.2898130945       24.5935299202       -9.6736675851  MEMB      100             0.0000000000
     13303       106  POPC      C210           15.9441407268       25.4175926096       -7.8056172730  MEMB      100             0.0000000000
     13304       106  POPC      H101           14.9273467879       24.9979180858       -7.8074322216  MEMB      100             0.0000000000
     13305       106  POPC      C211           16.1873792432       26.4636552126       -6.7439805199  MEMB      100             0.0000000000
     13306       106  POPC      H11R           16.6695250070       27.3860647617       -7.1325895612  MEMB      100             0.0000000000
     13307       106  POPC      H11S           16.8396269448       25.9347666775       -6.0165397791  MEMB      100             0.0000000000
     13308       106  POPC      C212           14.8458876485       26.8890077442       -6.0645629306  MEMB      100             0.0000000000
     13309       106  POPC      H12R           14.2454815527       27.4040823468       -6.8446478281  MEMB      100             0.0000000000
     13310       106  POPC      H12S           14.8499907956       27.6629377092       -5.2674827157  MEMB      100             0.0000000000
     13311       106  POPC      C213           14.0075153072       25.6996915258       -5.4207795066  MEMB      100             0.0000000000
     13312       106  POPC      H13R           14.7069474347       25.0670257208       -4.8335403338  MEMB      100             0.0000000000
     13313       106  POPC      H13S           13.5119732858       25.0358827042       -6.1611286897  MEMB      100             0.0000000000
     13314       106  POPC      C214           12.8376979826       26.0410874434       -4.4962209179  MEMB      100             0.0000000000
     13315       106  POPC      H14R           12.1355494887       26.7104015981       -5.0378177992  MEMB      100             0.0000000000
     13316       106  POPC      H14S           13.2846291293       26.6213287727       -3.6608207319  MEMB      100             0.0000000000
     13317       106  POPC      C215           12.1430428430       24.7240397966       -3.9216596391  MEMB      100             0.0000000000
     13318       106  POPC      H15R           12.9569135462       24.0024118011       -3.6954098141  MEMB      100             0.0000000000
     13319       106  POPC      H15S           11.4136309243       24.2685560813       -4.6250899788  MEMB      100             0.0000000000
     13320       106  POPC      C216           11.2915971485       25.1164769752       -2.6901312224  MEMB      100             0.0000000000
     13321       106  POPC      H16R           10.5466147264       25.8518030684       -3.0624448333  MEMB      100             0.0000000000
     13322       106  POPC      H16S           11.9152627770       25.6005983420       -1.9084734517  MEMB      100             0.0000000000
     13323       106  POPC      C217           10.6531413927       23.9190258713       -2.0549840449  MEMB      100             0.0000000000
     13324       106  POPC      H17R           11.4323740829       23.1271320655       -2.0596084843  MEMB      100             0.0000000000
     13325       106  POPC      H17S            9.8909867945       23.4420474171       -2.7076195693  MEMB      100             0.0000000000
     13326       106  POPC      C218           10.0042735305       23.9630257089       -0.6955565870  MEMB      100             0.0000000000
     13327       106  POPC      H18R            8.9635196141       24.3010096234       -0.8877003723  MEMB      100             0.0000000000
     13328       106  POPC      H18S           10.5617726824       24.6727808653       -0.0476648031  MEMB      100             0.0000000000
     13329       106  POPC      H18T           10.0471767177       22.9715193834       -0.1961617326  MEMB      100             0.0000000000
     13330       106  POPC      C33            16.5479895426       19.1533668523      -11.3066848079  MEMB      100             0.0000000000
     13331       106  POPC      H3X            16.8710077805       20.1130634674      -11.7638094230  MEMB      100             0.0000000000
     13332       106  POPC      H3Y            17.3054835250       18.3580958300      -11.4742197994  MEMB      100             0.0000000000
     13333       106  POPC      C34            16.2953248985       19.2991196450       -9.8043512066  MEMB      100             0.0000000000
     13334       106  POPC      H4X            15.9283757700       18.4048149677       -9.2567303549  MEMB      100             0.0000000000
     13335       106  POPC      H4Y            15.4349422871       19.9675010115       -9.5867988045  MEMB      100             0.0000000000
     13336       106  POPC      C35            17.5442769511       19.8623561603       -9.0000728361  MEMB      100             0.0000000000
     13337       106  POPC      H5X            17.8344033508       20.8557578965       -9.4041768140  MEMB      100             0.0000000000
     13338       106  POPC      H5Y            18.3787164697       19.1958578457       -9.3063598560  MEMB      100             0.0000000000
     13339       106  POPC      C36            17.3766211961       19.9045988317       -7.5082388847  MEMB      100             0.0000000000
     13340       106  POPC      H6X            16.9545982367       18.9506374980       -7.1259110182  MEMB      100             0.0000000000
     13341       106  POPC      H6Y            16.7139438850       20.7518705017       -7.2301912711  MEMB      100             0.0000000000
     13342       106  POPC      C37            18.7038385778       20.0565897977       -6.7733469792  MEMB      100             0.0000000000
     13343       106  POPC      H7X            19.3082076911       19.1275204023       -6.6966079110  MEMB      100             0.0000000000
     13344       106  POPC      H7Y            18.4572315647       20.3602995673       -5.7335074394  MEMB      100             0.0000000000
     13345       106  POPC      C38            19.5020587126       21.1324524767       -7.3927873377  MEMB      100             0.0000000000
     13346       106  POPC      H8X            18.7577059580       21.9111105555       -7.6647280934  MEMB      100             0.0000000000
     13347       106  POPC      H8Y            19.8299040369       20.8430667811       -8.4141077241  MEMB      100             0.0000000000
     13348       106  POPC      C39            20.7037812564       21.4724149641       -6.4475188661  MEMB      100             0.0000000000
     13349       106  POPC      H9X            21.4611707255       21.8608182842       -7.1615386240  MEMB      100             0.0000000000
     13350       106  POPC      H9Y            21.0496841121       20.5213193685       -5.9891638101  MEMB      100             0.0000000000
     13351       106  POPC      C310           20.3960042500       22.4146297751       -5.2763477981  MEMB      100             0.0000000000
     13352       106  POPC      H10X           21.3251515968       22.7994676371       -4.8042186527  MEMB      100             0.0000000000
     13353       106  POPC      H10Y           19.9396346679       21.6531197207       -4.6084034384  MEMB      100             0.0000000000
     13354       106  POPC      C311           19.4601018490       23.5463414219       -5.6806013845  MEMB      100             0.0000000000
     13355       106  POPC      H11X           18.5169543563       23.2765331323       -6.2021350846  MEMB      100             0.0000000000
     13356       106  POPC      H11Y           20.0321838263       24.3063412528       -6.2545729745  MEMB      100             0.0000000000
     13357       106  POPC      C312           19.0084086542       24.3839317568       -4.4457394525  MEMB      100             0.0000000000
     13358       106  POPC      H12X           18.6756010722       25.4007103338       -4.7452751857  MEMB      100             0.0000000000
     13359       106  POPC      H12Y           19.9693460079       24.6949572978       -3.9829405091  MEMB      100             0.0000000000
     13360       106  POPC      C313           18.2302100132       23.6512511991       -3.3271000004  MEMB      100             0.0000000000
     13361       106  POPC      H13X           17.8725937075       24.4215024427       -2.6107584363  MEMB      100             0.0000000000
     13362       106  POPC      H13Y           18.9632679344       23.0251245164       -2.7749108538  MEMB      100             0.0000000000
     13363       106  POPC      C314           17.0542605143       22.8558335646       -3.9591847035  MEMB      100             0.0000000000
     13364       106  POPC      H14X           17.4363928928       22.0231421905       -4.5876124780  MEMB      100             0.0000000000
     13365       106  POPC      H14Y           16.4486704942       23.5207238875       -4.6114906239  MEMB      100             0.0000000000
     13366       106  POPC      C315           15.9728586517       22.3617450120       -2.9232050061  MEMB      100             0.0000000000
     13367       106  POPC      H15X           15.1957803734       21.7693376079       -3.4519055934  MEMB      100             0.0000000000
     13368       106  POPC      H15Y           15.5676372642       23.3543316509       -2.6318489803  MEMB      100             0.0000000000
     13369       106  POPC      C316           16.4218727904       21.6506027464       -1.6423109022  MEMB      100             0.0000000000
     13370       106  POPC      H16X           15.5332801810       21.3602405646       -1.0419670815  MEMB      100             0.0000000000
     13371       106  POPC      H16Y           17.0422652083       22.3311763076       -1.0208184508  MEMB      100             0.0000000000
     13372       106  POPC      H16Z           17.0109841198       20.7290105368       -1.8370850411  MEMB      100             0.0000000000
     13373       107  POPC      N              11.6289925992      -27.0378163970      -17.7564157234  MEMB      101             0.0000000000
     13374       107  POPC      C12            10.5370572779      -26.3574099715      -18.5874696716  MEMB      101             0.0000000000
     13375       107  POPC      H12A           11.0136550721      -25.4704383893      -18.9780279014  MEMB      101             0.0000000000
     13376       107  POPC      H12B            9.7272064885      -26.0299159300      -17.9524189950  MEMB      101             0.0000000000
     13377       107  POPC      C13            10.9261951419      -28.2231333814      -17.0843311512  MEMB      101             0.0000000000
     13378       107  POPC      H13A           10.2523133587      -27.8116634057      -16.3474621838  MEMB      101             0.0000000000
     13379       107  POPC      H13B           10.4318630567      -28.8476284823      -17.8137429360  MEMB      101             0.0000000000
     13380       107  POPC      H13C           11.7130220339      -28.8502541609      -16.6918733461  MEMB      101             0.0000000000
     13381       107  POPC      C14            12.7799132227      -27.5880810061      -18.5526904852  MEMB      101             0.0000000000
     13382       107  POPC      H14A           12.3117898722      -28.1711861677      -19.3319524036  MEMB      101             0.0000000000
     13383       107  POPC      H14B           13.4342560188      -26.9151032868      -19.0868594236  MEMB      101             0.0000000000
     13384       107  POPC      H14C           13.3629987800      -28.2001817168      -17.8805714019  MEMB      101             0.0000000000
     13385       107  POPC      C15            12.2142756311      -25.9722157736      -16.7807618005  MEMB      101             0.0000000000
     13386       107  POPC      H15A           11.4464298622      -25.6673865248      -16.0851382332  MEMB      101             0.0000000000
     13387       107  POPC      H15B           12.5563190931      -25.1376588390      -17.3748335494  MEMB      101             0.0000000000
     13388       107  POPC      H15C           13.0842351542      -26.3646717442      -16.2752433270  MEMB      101             0.0000000000
     13389       107  POPC      C11            10.0221932159      -27.2092317322      -19.7690895063  MEMB      101             0.0000000000
     13390       107  POPC      H11A           10.8406112367      -27.5578963277      -20.4346312547  MEMB      101             0.0000000000
     13391       107  POPC      H11B            9.5362528387      -26.3860748359      -20.3353010460  MEMB      101             0.0000000000
     13392       107  POPC      P               7.8723096260      -28.4253480725      -20.2007816933  MEMB      101             0.0000000000
     13393       107  POPC      O13             8.2935728706      -28.7784419582      -21.5849704159  MEMB      101             0.0000000000
     13394       107  POPC      O14             7.0457208887      -27.2093609199      -19.9153000033  MEMB      101             0.0000000000
     13395       107  POPC      O12             9.1719950723      -28.2463492240      -19.2888154205  MEMB      101             0.0000000000
     13396       107  POPC      O11             7.1053141884      -29.6399791107      -19.4793741324  MEMB      101             0.0000000000
     13397       107  POPC      C1              5.7528982794      -29.6549901231      -19.1273035768  MEMB      101             0.0000000000
     13398       107  POPC      HA              5.2486887017      -30.5852923576      -19.4658758460  MEMB      101             0.0000000000
     13399       107  POPC      HB              5.0394360572      -28.8962175858      -19.5140297445  MEMB      101             0.0000000000
     13400       107  POPC      C2              5.4657736384      -29.5530070424      -17.5981426063  MEMB      101             0.0000000000
     13401       107  POPC      HS              4.3774444891      -29.3424754499      -17.5237295561  MEMB      101             0.0000000000
     13402       107  POPC      O21             6.2067751264      -28.4443754174      -17.0691487324  MEMB      101             0.0000000000
     13403       107  POPC      C21             5.6676508546      -27.5512559120      -16.2472135554  MEMB      101             0.0000000000
     13404       107  POPC      O22             4.5127603293      -27.5921942548      -15.7356862940  MEMB      101             0.0000000000
     13405       107  POPC      C22             6.6662670301      -26.3604537616      -15.9703395538  MEMB      101             0.0000000000
     13406       107  POPC      H2R             6.6272990431      -25.6101732983      -16.7888025888  MEMB      101             0.0000000000
     13407       107  POPC      H2S             7.7287255561      -26.6797786694      -16.0297911630  MEMB      101             0.0000000000
     13408       107  POPC      C3              5.8898149248      -30.8343143752      -16.9038009329  MEMB      101             0.0000000000
     13409       107  POPC      HX              6.8946417483      -31.1534191694      -17.2542524325  MEMB      101             0.0000000000
     13410       107  POPC      HY              5.1259978949      -31.6123784422      -17.1171581040  MEMB      101             0.0000000000
     13411       107  POPC      O31             5.9778890090      -30.6021738730      -15.4870080452  MEMB      101             0.0000000000
     13412       107  POPC      C31             7.0907800349      -30.8930212622      -14.9187847445  MEMB      101             0.0000000000
     13413       107  POPC      O32             8.1180485999      -31.3866494547      -15.3776663043  MEMB      101             0.0000000000
     13414       107  POPC      C32             7.0701155560      -30.3508418441      -13.4730519851  MEMB      101             0.0000000000
     13415       107  POPC      H2X             6.4790250082      -31.1053406651      -12.9112110902  MEMB      101             0.0000000000
     13416       107  POPC      H2Y             6.5532727884      -29.3679582585      -13.5067323591  MEMB      101             0.0000000000
     13417       107  POPC      C23             6.3365157337      -25.6053088694      -14.7181537316  MEMB      101             0.0000000000
     13418       107  POPC      H3R             5.2723310278      -25.3226226005      -14.8662089133  MEMB      101             0.0000000000
     13419       107  POPC      H3S             7.0979586454      -24.8146415156      -14.5467743627  MEMB      101             0.0000000000
     13420       107  POPC      C24             6.5948393739      -26.4286070514      -13.5074536683  MEMB      101             0.0000000000
     13421       107  POPC      H4R             7.6029360620      -26.8804754280      -13.3896514696  MEMB      101             0.0000000000
     13422       107  POPC      H4S             5.8591245507      -27.2455166948      -13.3471314216  MEMB      101             0.0000000000
     13423       107  POPC      C25             6.3613023897      -25.4890425946      -12.3473288235  MEMB      101             0.0000000000
     13424       107  POPC      H5R             5.4726956227      -24.8699504787      -12.5951666490  MEMB      101             0.0000000000
     13425       107  POPC      H5S             7.1421899637      -24.7020564875      -12.2752976503  MEMB      101             0.0000000000
     13426       107  POPC      C26             6.2975535676      -26.0590352631      -10.9139482607  MEMB      101             0.0000000000
     13427       107  POPC      H6R             6.5039509711      -25.1712019309      -10.2787526126  MEMB      101             0.0000000000
     13428       107  POPC      H6S             7.2145861586      -26.6814295460      -10.8365054267  MEMB      101             0.0000000000
     13429       107  POPC      C27             4.9481757658      -26.6859942331      -10.5596501377  MEMB      101             0.0000000000
     13430       107  POPC      H7R             4.6983935125      -27.5231408080      -11.2460284804  MEMB      101             0.0000000000
     13431       107  POPC      H7S             4.1226242851      -25.9819129800      -10.7985119090  MEMB      101             0.0000000000
     13432       107  POPC      C28             4.8977470438      -27.1594518617       -9.0771879678  MEMB      101             0.0000000000
     13433       107  POPC      H8R             3.8417668407      -27.3770146947       -8.8090589926  MEMB      101             0.0000000000
     13434       107  POPC      H8S             5.2767617093      -26.2497007251       -8.5643316337  MEMB      101             0.0000000000
     13435       107  POPC      C29             5.7592601631      -28.2921825929       -8.5328367840  MEMB      101             0.0000000000
     13436       107  POPC      H91             6.7587546354      -28.4119943853       -8.9762957375  MEMB      101             0.0000000000
     13437       107  POPC      C210            5.4876548462      -29.1638792514       -7.6086227710  MEMB      101             0.0000000000
     13438       107  POPC      H101            6.2974682059      -29.8986915883       -7.4892362256  MEMB      101             0.0000000000
     13439       107  POPC      C211            4.2314360574      -29.3911470872       -6.7789562027  MEMB      101             0.0000000000
     13440       107  POPC      H11R            3.7621264637      -30.3344915963       -7.1313345965  MEMB      101             0.0000000000
     13441       107  POPC      H11S            3.6075774736      -28.4815508454       -6.6457025908  MEMB      101             0.0000000000
     13442       107  POPC      C212            4.6347932844      -29.6885751364       -5.3581983427  MEMB      101             0.0000000000
     13443       107  POPC      H12R            5.3392497200      -30.5469837533       -5.3927950557  MEMB      101             0.0000000000
     13444       107  POPC      H12S            3.7752784478      -30.1009317321       -4.7876565046  MEMB      101             0.0000000000
     13445       107  POPC      C213            5.3347576187      -28.5266170298       -4.6132457607  MEMB      101             0.0000000000
     13446       107  POPC      H13R            4.6632078459      -27.6537668010       -4.4667057242  MEMB      101             0.0000000000
     13447       107  POPC      H13S            6.2257850821      -28.1769011277       -5.1772397035  MEMB      101             0.0000000000
     13448       107  POPC      C214            5.9871191542      -28.9304329014       -3.3013897393  MEMB      101             0.0000000000
     13449       107  POPC      H14R            6.6480538123      -29.7564080321       -3.6408764886  MEMB      101             0.0000000000
     13450       107  POPC      H14S            5.2140852580      -29.4410435734       -2.6881866094  MEMB      101             0.0000000000
     13451       107  POPC      C215            6.7629907013      -27.9467200028       -2.5553742277  MEMB      101             0.0000000000
     13452       107  POPC      H15R            7.1879483161      -28.4974789899       -1.6891213627  MEMB      101             0.0000000000
     13453       107  POPC      H15S            6.0931595829      -27.1999212592       -2.0779461087  MEMB      101             0.0000000000
     13454       107  POPC      C216            7.9283706837      -27.3064363243       -3.3976360048  MEMB      101             0.0000000000
     13455       107  POPC      H16R            7.5160288122      -26.7245549128       -4.2495211826  MEMB      101             0.0000000000
     13456       107  POPC      H16S            8.7102721719      -28.0415265613       -3.6850268886  MEMB      101             0.0000000000
     13457       107  POPC      C217            8.8399059986      -26.2172971480       -2.6461245858  MEMB      101             0.0000000000
     13458       107  POPC      H17R            9.6098563633      -25.7371510159       -3.2871840421  MEMB      101             0.0000000000
     13459       107  POPC      H17S            9.4405586292      -26.8111587379       -1.9244150395  MEMB      101             0.0000000000
     13460       107  POPC      C218            8.2441328559      -25.1139692563       -1.7574252125  MEMB      101             0.0000000000
     13461       107  POPC      H18R            7.7655322380      -24.2593289075       -2.2816880913  MEMB      101             0.0000000000
     13462       107  POPC      H18S            8.9469168214      -24.6914586182       -1.0078247345  MEMB      101             0.0000000000
     13463       107  POPC      H18T            7.3800817136      -25.5665574898       -1.2255403791  MEMB      101             0.0000000000
     13464       107  POPC      C33             8.4174998999      -30.2324636853      -12.7702621528  MEMB      101             0.0000000000
     13465       107  POPC      H3X             8.9843773328      -29.4171481912      -13.2684899399  MEMB      101             0.0000000000
     13466       107  POPC      H3Y             9.0567600687      -31.1405811999      -12.7387971139  MEMB      101             0.0000000000
     13467       107  POPC      C34             8.2486544224      -29.9424368364      -11.2405713231  MEMB      101             0.0000000000
     13468       107  POPC      H4X             7.1857832935      -30.1944094439      -11.0377517239  MEMB      101             0.0000000000
     13469       107  POPC      H4Y             8.4202461702      -28.8587344760      -11.0660249126  MEMB      101             0.0000000000
     13470       107  POPC      C35             9.2197276090      -30.7466032984      -10.4614660609  MEMB      101             0.0000000000
     13471       107  POPC      H5X            10.2487416392      -30.4755866121      -10.7808424794  MEMB      101             0.0000000000
     13472       107  POPC      H5Y             9.1388004489      -31.8322227936      -10.6832815298  MEMB      101             0.0000000000
     13473       107  POPC      C36             9.2000154618      -30.5766985501       -8.9226021107  MEMB      101             0.0000000000
     13474       107  POPC      H6X             9.9140401369      -31.3097508499       -8.4900231249  MEMB      101             0.0000000000
     13475       107  POPC      H6Y             8.1409908858      -30.7749719880       -8.6515377439  MEMB      101             0.0000000000
     13476       107  POPC      C37             9.6724656179      -29.1669887930       -8.5126310812  MEMB      101             0.0000000000
     13477       107  POPC      H7X             8.9957335330      -28.4606669207       -9.0393792684  MEMB      101             0.0000000000
     13478       107  POPC      H7Y            10.7420338076      -28.9879598709       -8.7540703442  MEMB      101             0.0000000000
     13479       107  POPC      C38             9.4597219859      -29.0827065067       -7.0367793516  MEMB      101             0.0000000000
     13480       107  POPC      H8X             8.5331048222      -29.6534729461       -6.8133344844  MEMB      101             0.0000000000
     13481       107  POPC      H8Y             9.3186316260      -28.0288343356       -6.7146486432  MEMB      101             0.0000000000
     13482       107  POPC      C39            10.5412130678      -29.7561724593       -6.2036514487  MEMB      101             0.0000000000
     13483       107  POPC      H9X            11.1728601605      -30.4658698371       -6.7795613929  MEMB      101             0.0000000000
     13484       107  POPC      H9Y            10.0270522242      -30.2373802973       -5.3443505659  MEMB      101             0.0000000000
     13485       107  POPC      C310           11.5694662651      -28.7924343646       -5.5984702880  MEMB      101             0.0000000000
     13486       107  POPC      H10X           11.1405638217      -27.7856763834       -5.4066314637  MEMB      101             0.0000000000
     13487       107  POPC      H10Y           12.3649007205      -28.5881307171       -6.3467113691  MEMB      101             0.0000000000
     13488       107  POPC      C311           12.2459918150      -29.2176377242       -4.2228762682  MEMB      101             0.0000000000
     13489       107  POPC      H11X           13.0597516260      -28.5286803873       -3.9107009025  MEMB      101             0.0000000000
     13490       107  POPC      H11Y           12.6901436655      -30.2085077862       -4.4578788691  MEMB      101             0.0000000000
     13491       107  POPC      C312           11.3033256272      -29.3904618456       -3.0786081486  MEMB      101             0.0000000000
     13492       107  POPC      H12X           10.7067868949      -30.3139298927       -3.2388243444  MEMB      101             0.0000000000
     13493       107  POPC      H12Y           10.5999497441      -28.5305599097       -3.0662788128  MEMB      101             0.0000000000
     13494       107  POPC      C313           12.0486816901      -29.5689333530       -1.7156625772  MEMB      101             0.0000000000
     13495       107  POPC      H13X           12.4570682879      -28.5835682682       -1.4048620390  MEMB      101             0.0000000000
     13496       107  POPC      H13Y           12.8871389023      -30.2237508884       -2.0358574439  MEMB      101             0.0000000000
     13497       107  POPC      C314           11.1118342226      -30.2119125946       -0.6648692982  MEMB      101             0.0000000000
     13498       107  POPC      H14X           11.6636481995      -30.6456021568        0.1963719516  MEMB      101             0.0000000000
     13499       107  POPC      H14Y           10.5238125773      -31.0342751937       -1.1255987205  MEMB      101             0.0000000000
     13500       107  POPC      C315           10.1264737173      -29.2141704931       -0.1171541639  MEMB      101             0.0000000000
     13501       107  POPC      H15X            9.3857277775      -29.8686865336        0.3900197072  MEMB      101             0.0000000000
     13502       107  POPC      H15Y            9.5942665952      -28.7539951488       -0.9769893644  MEMB      101             0.0000000000
     13503       107  POPC      C316           10.6265569585      -28.1613334989        0.8438968379  MEMB      101             0.0000000000
     13504       107  POPC      H16X            9.8201914785      -27.4664540775        1.1620753975  MEMB      101             0.0000000000
     13505       107  POPC      H16Y           11.4711874401      -27.6470404060        0.3375139749  MEMB      101             0.0000000000
     13506       107  POPC      H16Z           11.0156436452      -28.6760989256        1.7483018832  MEMB      101             0.0000000000
     13507       108  POPC      N              28.2611823703       -5.0240956902      -18.1030570658  MEMB      102             0.0000000000
     13508       108  POPC      C12            27.0012613173       -4.7445108453      -18.9097001655  MEMB      102             0.0000000000
     13509       108  POPC      H12A           26.3191554076       -5.4527600490      -18.4630292300  MEMB      102             0.0000000000
     13510       108  POPC      H12B           27.0826136584       -5.1724184487      -19.8979697536  MEMB      102             0.0000000000
     13511       108  POPC      C13            28.1551511970       -4.6506583527      -16.6043509835  MEMB      102             0.0000000000
     13512       108  POPC      H13A           29.1444351409       -4.6194471417      -16.1722129708  MEMB      102             0.0000000000
     13513       108  POPC      H13B           27.7074512501       -3.6699694046      -16.5394362569  MEMB      102             0.0000000000
     13514       108  POPC      H13C           27.4975650143       -5.4039850861      -16.1963318565  MEMB      102             0.0000000000
     13515       108  POPC      C14            28.4234569675       -6.5030000425      -18.0326679263  MEMB      102             0.0000000000
     13516       108  POPC      H14A           29.2862770912       -6.8112197163      -17.4608796387  MEMB      102             0.0000000000
     13517       108  POPC      H14B           27.5430144890       -6.8860157602      -17.5381784034  MEMB      102             0.0000000000
     13518       108  POPC      H14C           28.5116053568       -6.9550305871      -19.0095498447  MEMB      102             0.0000000000
     13519       108  POPC      C15            29.4787426447       -4.3736892525      -18.7413857560  MEMB      102             0.0000000000
     13520       108  POPC      H15A           30.3159741908       -4.4997404213      -18.0708975253  MEMB      102             0.0000000000
     13521       108  POPC      H15B           29.0747160425       -3.3726695009      -18.7748834628  MEMB      102             0.0000000000
     13522       108  POPC      H15C           29.6705195981       -4.8565708921      -19.6881945818  MEMB      102             0.0000000000
     13523       108  POPC      C11            26.5060072328       -3.2564225628      -19.0095664068  MEMB      102             0.0000000000
     13524       108  POPC      H11A           26.4222866472       -2.8327822941      -17.9859254452  MEMB      102             0.0000000000
     13525       108  POPC      H11B           25.4579732727       -3.1650697986      -19.3667787860  MEMB      102             0.0000000000
     13526       108  POPC      P              27.6174961459       -1.0103760575      -19.9907494673  MEMB      102             0.0000000000
     13527       108  POPC      O13            26.2461978552       -0.4724888647      -20.2192053360  MEMB      102             0.0000000000
     13528       108  POPC      O14            28.7182490812       -0.8100091309      -20.9784115047  MEMB      102             0.0000000000
     13529       108  POPC      O12            27.3240046015       -2.5360630098      -19.8733125950  MEMB      102             0.0000000000
     13530       108  POPC      O11            28.0507936064       -0.7931120354      -18.5375927809  MEMB      102             0.0000000000
     13531       108  POPC      C1             27.3829999145        0.1265640909      -17.6376687924  MEMB      102             0.0000000000
     13532       108  POPC      HA             26.5998274644       -0.5216122968      -17.1895291374  MEMB      102             0.0000000000
     13533       108  POPC      HB             26.9731746460        1.0264406655      -18.1442121219  MEMB      102             0.0000000000
     13534       108  POPC      C2             28.4583239236        0.5992761472      -16.5709176143  MEMB      102             0.0000000000
     13535       108  POPC      HS             28.9996236998        1.4656563651      -17.0076103818  MEMB      102             0.0000000000
     13536       108  POPC      O21            29.4202567073       -0.5072900681      -16.3843966039  MEMB      102             0.0000000000
     13537       108  POPC      C21            30.4863607113       -0.2676191760      -15.6817375424  MEMB      102             0.0000000000
     13538       108  POPC      O22            30.8872164955        0.7775394501      -15.2036782113  MEMB      102             0.0000000000
     13539       108  POPC      C22            31.3994408677       -1.4879625712      -15.6977613026  MEMB      102             0.0000000000
     13540       108  POPC      H2R            32.3355346160       -1.2230904278      -15.1612053900  MEMB      102             0.0000000000
     13541       108  POPC      H2S            31.6558641563       -1.8230025133      -16.7255337191  MEMB      102             0.0000000000
     13542       108  POPC      C3             27.7677689662        0.9454740756      -15.2719330931  MEMB      102             0.0000000000
     13543       108  POPC      HX             27.0213432641        1.7589405009      -15.3961987872  MEMB      102             0.0000000000
     13544       108  POPC      HY             28.4899320734        1.2534693233      -14.4858410306  MEMB      102             0.0000000000
     13545       108  POPC      O31            26.9039350584       -0.1062897449      -14.7673901694  MEMB      102             0.0000000000
     13546       108  POPC      C31            27.3738414799       -0.6991790300      -13.6412191083  MEMB      102             0.0000000000
     13547       108  POPC      O32            28.5440906039       -0.6856378096      -13.3253872795  MEMB      102             0.0000000000
     13548       108  POPC      C32            26.2737210168       -1.5163216850      -13.0080356444  MEMB      102             0.0000000000
     13549       108  POPC      H2X            25.4808296809       -0.8282614605      -12.6444186275  MEMB      102             0.0000000000
     13550       108  POPC      H2Y            26.6990303421       -2.0989473315      -12.1630618073  MEMB      102             0.0000000000
     13551       108  POPC      C23            30.8647616780       -2.6964345760      -14.9078744976  MEMB      102             0.0000000000
     13552       108  POPC      H3R            31.3565603815       -3.6379570068      -15.2334368187  MEMB      102             0.0000000000
     13553       108  POPC      H3S            29.7896848385       -2.8546683451      -15.1391595471  MEMB      102             0.0000000000
     13554       108  POPC      C24            31.0968148999       -2.5612191305      -13.4474725359  MEMB      102             0.0000000000
     13555       108  POPC      H4R            30.5090091634       -1.7504248574      -12.9664133992  MEMB      102             0.0000000000
     13556       108  POPC      H4S            32.1498484400       -2.3150181529      -13.1928619027  MEMB      102             0.0000000000
     13557       108  POPC      C25            30.5782702401       -3.7849085714      -12.7409580266  MEMB      102             0.0000000000
     13558       108  POPC      H5R            31.1243440333       -4.6313911305      -13.2095643838  MEMB      102             0.0000000000
     13559       108  POPC      H5S            29.5115596150       -4.0390112112      -12.9195107345  MEMB      102             0.0000000000
     13560       108  POPC      C26            30.8538754935       -3.8336681152      -11.2062640699  MEMB      102             0.0000000000
     13561       108  POPC      H6R            31.9066958658       -3.5301851953      -11.0224485530  MEMB      102             0.0000000000
     13562       108  POPC      H6S            30.6083907816       -4.8668202358      -10.8796833067  MEMB      102             0.0000000000
     13563       108  POPC      C27            30.1075009630       -2.6630162743      -10.5191008463  MEMB      102             0.0000000000
     13564       108  POPC      H7R            29.0450316996       -2.9658487846      -10.6364581070  MEMB      102             0.0000000000
     13565       108  POPC      H7S            30.0686583113       -1.6755333780      -11.0267324567  MEMB      102             0.0000000000
     13566       108  POPC      C28            30.5443992600       -2.4817461373       -9.0463723395  MEMB      102             0.0000000000
     13567       108  POPC      H8R            30.9807542597       -3.4988372959       -8.9492080039  MEMB      102             0.0000000000
     13568       108  POPC      H8S            29.7433211121       -2.2831175979       -8.3026370563  MEMB      102             0.0000000000
     13569       108  POPC      C29            31.7706265687       -1.6059740033       -8.9327784973  MEMB      102             0.0000000000
     13570       108  POPC      H91            32.0874818415       -1.1333534796       -9.8741772705  MEMB      102             0.0000000000
     13571       108  POPC      C210           32.4753361620       -1.2463043491       -7.8834264126  MEMB      102             0.0000000000
     13572       108  POPC      H101           33.4499403234       -0.7417229465       -7.9578866073  MEMB      102             0.0000000000
     13573       108  POPC      C211           32.0462547410       -1.6915041880       -6.4454922099  MEMB      102             0.0000000000
     13574       108  POPC      H11R           32.8976158158       -2.2797680267       -6.0412015168  MEMB      102             0.0000000000
     13575       108  POPC      H11S           31.3624122584       -2.5671021922       -6.4484232656  MEMB      102             0.0000000000
     13576       108  POPC      C212           31.7020185591       -0.5246322311       -5.4789013397  MEMB      102             0.0000000000
     13577       108  POPC      H12R           30.8411969006       -0.0575754604       -6.0034633951  MEMB      102             0.0000000000
     13578       108  POPC      H12S           32.4925858418        0.2369038794       -5.3074748159  MEMB      102             0.0000000000
     13579       108  POPC      C213           31.3328996863       -0.9947866892       -4.0727477713  MEMB      102             0.0000000000
     13580       108  POPC      H13R           32.2745515282       -1.3810648386       -3.6273238653  MEMB      102             0.0000000000
     13581       108  POPC      H13S           30.6206936412       -1.8467220958       -4.1086621976  MEMB      102             0.0000000000
     13582       108  POPC      C214           30.6386169155        0.0515681893       -3.1910634408  MEMB      102             0.0000000000
     13583       108  POPC      H14R           30.0143485385       -0.4450774755       -2.4177891689  MEMB      102             0.0000000000
     13584       108  POPC      H14S           29.8770564484        0.5824265817       -3.8014218193  MEMB      102             0.0000000000
     13585       108  POPC      C215           31.6959809056        1.0813407209       -2.5638621782  MEMB      102             0.0000000000
     13586       108  POPC      H15R           31.0972404089        1.8417816044       -2.0183697036  MEMB      102             0.0000000000
     13587       108  POPC      H15S           32.1954498993        1.4810381685       -3.4722084305  MEMB      102             0.0000000000
     13588       108  POPC      C216           32.8422299037        0.5697023566       -1.6731619969  MEMB      102             0.0000000000
     13589       108  POPC      H16R           33.3139049360        1.4484877628       -1.1836933679  MEMB      102             0.0000000000
     13590       108  POPC      H16S           33.5618715660        0.0321514600       -2.3269790906  MEMB      102             0.0000000000
     13591       108  POPC      C217           32.3493381499       -0.4716647008       -0.7090299915  MEMB      102             0.0000000000
     13592       108  POPC      H17R           31.7149563243       -1.2547555197       -1.1766296003  MEMB      102             0.0000000000
     13593       108  POPC      H17S           31.5838352584        0.1467620447       -0.1934011442  MEMB      102             0.0000000000
     13594       108  POPC      C218           33.2643448187       -0.9307270949        0.4294555655  MEMB      102             0.0000000000
     13595       108  POPC      H18R           34.1505643278       -1.4216853158       -0.0265015157  MEMB      102             0.0000000000
     13596       108  POPC      H18S           32.6717530380       -1.6711735338        1.0081573914  MEMB      102             0.0000000000
     13597       108  POPC      H18T           33.6466407596       -0.0387848007        0.9703894981  MEMB      102             0.0000000000
     13598       108  POPC      C33            25.6745237655       -2.5390958843      -13.9382048349  MEMB      102             0.0000000000
     13599       108  POPC      H3X            26.3727781081       -3.3995660434      -14.0179093909  MEMB      102             0.0000000000
     13600       108  POPC      H3Y            25.5099236834       -2.1958604827      -14.9819561645  MEMB      102             0.0000000000
     13601       108  POPC      C34            24.3759480155       -3.1139868165      -13.3929351898  MEMB      102             0.0000000000
     13602       108  POPC      H4X            23.9124774562       -3.6893196650      -14.2226993488  MEMB      102             0.0000000000
     13603       108  POPC      H4Y            23.7307316713       -2.3133591472      -12.9722066968  MEMB      102             0.0000000000
     13604       108  POPC      C35            24.5302242373       -4.3715425649      -12.3957641890  MEMB      102             0.0000000000
     13605       108  POPC      H5X            25.0186183632       -5.1831220900      -12.9763938293  MEMB      102             0.0000000000
     13606       108  POPC      H5Y            23.4827642304       -4.6550014134      -12.1574369346  MEMB      102             0.0000000000
     13607       108  POPC      C36            25.1053788974       -4.2255693676      -10.9310730998  MEMB      102             0.0000000000
     13608       108  POPC      H6X            26.2082729452       -4.0963038743      -10.9662357103  MEMB      102             0.0000000000
     13609       108  POPC      H6Y            24.9258527536       -5.1824294049      -10.3958067660  MEMB      102             0.0000000000
     13610       108  POPC      C37            24.4634400793       -3.0691355183      -10.1549606919  MEMB      102             0.0000000000
     13611       108  POPC      H7X            23.3942185702       -3.3416959071      -10.0253580382  MEMB      102             0.0000000000
     13612       108  POPC      H7Y            24.4753497578       -2.1135320547      -10.7215303916  MEMB      102             0.0000000000
     13613       108  POPC      C38            25.2128623898       -2.7942585007       -8.8296120767  MEMB      102             0.0000000000
     13614       108  POPC      H8X            26.2867362919       -2.7098230137       -9.1016170384  MEMB      102             0.0000000000
     13615       108  POPC      H8Y            25.1213593280       -3.6130365982       -8.0842596718  MEMB      102             0.0000000000
     13616       108  POPC      C39            24.8684084321       -1.4972144401       -8.0332349632  MEMB      102             0.0000000000
     13617       108  POPC      H9X            23.7834991617       -1.5897268090       -7.8124769163  MEMB      102             0.0000000000
     13618       108  POPC      H9Y            24.8372013715       -0.6570878853       -8.7595510248  MEMB      102             0.0000000000
     13619       108  POPC      C310           25.7506285787       -1.1737804463       -6.8243613546  MEMB      102             0.0000000000
     13620       108  POPC      H10X           26.5359517321       -0.4167526405       -7.0353053338  MEMB      102             0.0000000000
     13621       108  POPC      H10Y           26.3333481439       -2.1043922108       -6.6548891993  MEMB      102             0.0000000000
     13622       108  POPC      C311           24.8961712034       -0.9128060418       -5.6132709894  MEMB      102             0.0000000000
     13623       108  POPC      H11X           24.3391740237       -1.7681822370       -5.1746287257  MEMB      102             0.0000000000
     13624       108  POPC      H11Y           24.1671053973       -0.1196925286       -5.8848497817  MEMB      102             0.0000000000
     13625       108  POPC      C312           25.6810559662       -0.3777487093       -4.4240242989  MEMB      102             0.0000000000
     13626       108  POPC      H12X           24.9474719987       -0.0870099854       -3.6419464494  MEMB      102             0.0000000000
     13627       108  POPC      H12Y           26.1859204644        0.5508110502       -4.7663832603  MEMB      102             0.0000000000
     13628       108  POPC      C313           26.7098602446       -1.4079645772       -3.8393891691  MEMB      102             0.0000000000
     13629       108  POPC      H13X           27.3032897384       -0.7763723025       -3.1442244471  MEMB      102             0.0000000000
     13630       108  POPC      H13Y           27.3217150636       -1.6856838978       -4.7241641779  MEMB      102             0.0000000000
     13631       108  POPC      C314           26.0916413978       -2.6520290670       -3.1976441264  MEMB      102             0.0000000000
     13632       108  POPC      H14X           25.2370173490       -3.0796978536       -3.7642462419  MEMB      102             0.0000000000
     13633       108  POPC      H14Y           25.7756743749       -2.4264453325       -2.1566845219  MEMB      102             0.0000000000
     13634       108  POPC      C315           27.0128732176       -3.8371570946       -2.9721142416  MEMB      102             0.0000000000
     13635       108  POPC      H15X           27.8020001798       -3.5197873796       -2.2573569656  MEMB      102             0.0000000000
     13636       108  POPC      H15Y           27.6221845669       -4.0763303635       -3.8698095034  MEMB      102             0.0000000000
     13637       108  POPC      C316           26.4418671719       -5.1228929985       -2.5054749028  MEMB      102             0.0000000000
     13638       108  POPC      H16X           27.1790684611       -5.7403926453       -1.9491038263  MEMB      102             0.0000000000
     13639       108  POPC      H16Y           26.1129641653       -5.7266170153       -3.3782070800  MEMB      102             0.0000000000
     13640       108  POPC      H16Z           25.7022681068       -4.8754538263       -1.7142173133  MEMB      102             0.0000000000
     13641       109  POPS      N             -11.6906948134       26.3065457481      -20.7832258869  MEMB      103             0.0000000000
     13642       109  POPS      HN1           -11.6498196025       27.3229606238      -20.5668239441  MEMB      103             0.0000000000
     13643       109  POPS      HN2           -11.0437419075       25.9580838669      -20.0472733838  MEMB      103             0.0000000000
     13644       109  POPS      HN3           -11.4423837281       26.0878565593      -21.7691857093  MEMB      103             0.0000000000
     13645       109  POPS      C12           -13.0002019186       25.6200179307      -20.4394667976  MEMB      103             0.0000000000
     13646       109  POPS      H12A          -12.6187849930       24.6111331619      -20.3840354465  MEMB      103             0.0000000000
     13647       109  POPS      C13           -14.1169067070       25.7000926853      -21.4855320530  MEMB      103             0.0000000000
     13648       109  POPS      O13A          -13.9620295095       26.4438863371      -22.4413552080  MEMB      103             0.0000000000
     13649       109  POPS      O13B          -15.1410770075       24.9365405777      -21.2761773733  MEMB      103             0.0000000000
     13650       109  POPS      C11           -13.5733592953       26.0857633566      -19.0794822535  MEMB      103             0.0000000000
     13651       109  POPS      H11A          -14.5603724291       25.6189788457      -18.8739625086  MEMB      103             0.0000000000
     13652       109  POPS      H11B          -13.7690477760       27.1785621168      -19.1221198878  MEMB      103             0.0000000000
     13653       109  POPS      P             -12.7067718114       26.2372046028      -16.6177047326  MEMB      103             0.0000000000
     13654       109  POPS      O13           -12.2869675254       27.6025118539      -16.7352855824  MEMB      103             0.0000000000
     13655       109  POPS      O14           -11.9229764700       25.3294094684      -15.7091522094  MEMB      103             0.0000000000
     13656       109  POPS      O12           -12.6594343786       25.6688277042      -18.1185757737  MEMB      103             0.0000000000
     13657       109  POPS      O11           -14.2600888676       26.1525940340      -16.3140421335  MEMB      103             0.0000000000
     13658       109  POPS      C1            -14.7109121492       24.9343140149      -15.7578069615  MEMB      103             0.0000000000
     13659       109  POPS      HA            -13.9866116311       24.1864697699      -15.3699427313  MEMB      103             0.0000000000
     13660       109  POPS      HB            -15.1360262837       24.3800530637      -16.6217478990  MEMB      103             0.0000000000
     13661       109  POPS      C2            -15.8403079176       25.1542951550      -14.8233863831  MEMB      103             0.0000000000
     13662       109  POPS      HS            -16.6918666307       25.6267547138      -15.3581301532  MEMB      103             0.0000000000
     13663       109  POPS      O21           -15.3814344003       25.9916416556      -13.7188099468  MEMB      103             0.0000000000
     13664       109  POPS      C21           -16.2869293168       26.8754676460      -13.1383496797  MEMB      103             0.0000000000
     13665       109  POPS      O22           -17.4631271668       26.9868257933      -13.4595507955  MEMB      103             0.0000000000
     13666       109  POPS      C22           -15.5668409502       27.6981715941      -12.0790986700  MEMB      103             0.0000000000
     13667       109  POPS      H2R           -15.3482367984       28.7197906679      -12.4570238904  MEMB      103             0.0000000000
     13668       109  POPS      H2S           -14.5924403394       27.2063666700      -11.8717526864  MEMB      103             0.0000000000
     13669       109  POPS      C3            -16.4504676251       23.8985986013      -14.2169328561  MEMB      103             0.0000000000
     13670       109  POPS      HX            -16.6999903323       23.3762532593      -15.1652025763  MEMB      103             0.0000000000
     13671       109  POPS      HY            -17.4673830172       24.0348267141      -13.7907334245  MEMB      103             0.0000000000
     13672       109  POPS      O31           -15.6421178816       23.1403743628      -13.3547672880  MEMB      103             0.0000000000
     13673       109  POPS      C31           -15.4012102905       23.5359622851      -12.1248138030  MEMB      103             0.0000000000
     13674       109  POPS      O32           -16.0173131666       24.3911401693      -11.5021602787  MEMB      103             0.0000000000
     13675       109  POPS      C32           -14.3089861598       22.6642375579      -11.5520430968  MEMB      103             0.0000000000
     13676       109  POPS      H2X           -14.3602443656       21.6290327101      -11.9520988549  MEMB      103             0.0000000000
     13677       109  POPS      H2Y           -14.3703489556       22.5775231264      -10.4461334471  MEMB      103             0.0000000000
     13678       109  POPS      C23           -16.3629870264       27.6796286555      -10.6811687235  MEMB      103             0.0000000000
     13679       109  POPS      H3R           -16.7967486857       26.7026117225      -10.3784972141  MEMB      103             0.0000000000
     13680       109  POPS      H3S           -17.2305123315       28.3551852387      -10.8403661293  MEMB      103             0.0000000000
     13681       109  POPS      C24           -15.7074737109       28.3337289193       -9.4490357943  MEMB      103             0.0000000000
     13682       109  POPS      H4R           -16.4091164352       28.2953774955       -8.5884852663  MEMB      103             0.0000000000
     13683       109  POPS      H4S           -15.3941920594       29.3811866936       -9.6465397370  MEMB      103             0.0000000000
     13684       109  POPS      C25           -14.4886541743       27.5876358340       -8.9528677446  MEMB      103             0.0000000000
     13685       109  POPS      H5R           -13.7523132575       27.3158040183       -9.7391442872  MEMB      103             0.0000000000
     13686       109  POPS      H5S           -14.8631010683       26.5798590354       -8.6726959752  MEMB      103             0.0000000000
     13687       109  POPS      C26           -13.9626998760       28.3199927247       -7.7309493505  MEMB      103             0.0000000000
     13688       109  POPS      H6R           -14.3900047340       28.0764701822       -6.7347426960  MEMB      103             0.0000000000
     13689       109  POPS      H6S           -14.1415325676       29.4151249254       -7.7859526995  MEMB      103             0.0000000000
     13690       109  POPS      C27           -12.3767272357       28.4235578278       -7.6333304905  MEMB      103             0.0000000000
     13691       109  POPS      H7R           -12.1263102435       29.1530589800       -6.8336804600  MEMB      103             0.0000000000
     13692       109  POPS      H7S           -11.9986759250       28.8934673658       -8.5663808742  MEMB      103             0.0000000000
     13693       109  POPS      C28           -11.5894050365       27.1369432123       -7.4264164990  MEMB      103             0.0000000000
     13694       109  POPS      H8R           -11.8962360819       26.4564481522       -8.2492787222  MEMB      103             0.0000000000
     13695       109  POPS      H8S           -11.7750350522       26.5666256014       -6.4912157606  MEMB      103             0.0000000000
     13696       109  POPS      C29           -10.0940773718       27.3208548649       -7.2977150216  MEMB      103             0.0000000000
     13697       109  POPS      H91            -9.7255409215       28.0202895390       -8.0625494598  MEMB      103             0.0000000000
     13698       109  POPS      C210           -9.1902050321       26.6557536978       -6.5862796088  MEMB      103             0.0000000000
     13699       109  POPS      H101           -8.1342233212       26.9292592704       -6.7280439366  MEMB      103             0.0000000000
     13700       109  POPS      C211           -9.4005460796       25.4899405847       -5.6431716801  MEMB      103             0.0000000000
     13701       109  POPS      H11R           -8.7628669524       24.6660535428       -6.0290427898  MEMB      103             0.0000000000
     13702       109  POPS      H11S          -10.4593373005       25.1634246586       -5.7248398489  MEMB      103             0.0000000000
     13703       109  POPS      C212           -8.8333023514       25.7746082058       -4.1695838713  MEMB      103             0.0000000000
     13704       109  POPS      H12R           -7.8370850928       26.2497395995       -4.2965575583  MEMB      103             0.0000000000
     13705       109  POPS      H12S           -8.6102689238       24.7489782980       -3.8053586031  MEMB      103             0.0000000000
     13706       109  POPS      C213           -9.6017107571       26.6891990480       -3.2291362138  MEMB      103             0.0000000000
     13707       109  POPS      H13R           -9.5537307144       27.7065798485       -3.6729327273  MEMB      103             0.0000000000
     13708       109  POPS      H13S           -9.2199661307       26.6646291110       -2.1860683783  MEMB      103             0.0000000000
     13709       109  POPS      C214          -11.1176727922       26.2510305224       -3.1338351133  MEMB      103             0.0000000000
     13710       109  POPS      H14R          -10.9290595474       25.1737026489       -2.9386145314  MEMB      103             0.0000000000
     13711       109  POPS      H14S          -11.6869618363       26.3798874029       -4.0791534422  MEMB      103             0.0000000000
     13712       109  POPS      C215          -11.7960221644       26.8464416805       -1.8455448986  MEMB      103             0.0000000000
     13713       109  POPS      H15R          -12.5307458757       27.6468693763       -2.0775315731  MEMB      103             0.0000000000
     13714       109  POPS      H15S          -11.0977067521       27.3600837673       -1.1506713720  MEMB      103             0.0000000000
     13715       109  POPS      C216          -12.3837925665       25.7034875949       -0.9420467347  MEMB      103             0.0000000000
     13716       109  POPS      H16R          -11.5636257278       25.0126849033       -0.6514626770  MEMB      103             0.0000000000
     13717       109  POPS      H16S          -13.0303371747       25.0073374399       -1.5179596928  MEMB      103             0.0000000000
     13718       109  POPS      C217          -13.0429131259       26.2082372752        0.3374535579  MEMB      103             0.0000000000
     13719       109  POPS      H17R          -13.6523149426       25.3910382887        0.7791961456  MEMB      103             0.0000000000
     13720       109  POPS      H17S          -13.7255617378       26.9949779406       -0.0490048183  MEMB      103             0.0000000000
     13721       109  POPS      C218          -11.9774748406       26.8240385750        1.3134096315  MEMB      103             0.0000000000
     13722       109  POPS      H18R          -12.4033742983       27.7764147877        1.6953909323  MEMB      103             0.0000000000
     13723       109  POPS      H18S          -11.0456201084       27.0367414892        0.7470829230  MEMB      103             0.0000000000
     13724       109  POPS      H18T          -11.6389019694       26.1121188477        2.0962637245  MEMB      103             0.0000000000
     13725       109  POPS      C33           -12.9289826631       23.2049189587      -11.9765608775  MEMB      103             0.0000000000
     13726       109  POPS      H3X           -12.9182801359       23.5682383194      -13.0264206251  MEMB      103             0.0000000000
     13727       109  POPS      H3Y           -12.2672667867       22.3176153757      -11.8809273858  MEMB      103             0.0000000000
     13728       109  POPS      C34           -12.4016890127       24.3202375798      -11.0763128713  MEMB      103             0.0000000000
     13729       109  POPS      H4X           -13.0371668796       25.2307443001      -11.1146068299  MEMB      103             0.0000000000
     13730       109  POPS      H4Y           -11.3463405268       24.4915520684      -11.3783260307  MEMB      103             0.0000000000
     13731       109  POPS      C35           -12.1529813804       23.9251772265       -9.6357992912  MEMB      103             0.0000000000
     13732       109  POPS      H5X           -13.1075249372       23.9346426740       -9.0673995284  MEMB      103             0.0000000000
     13733       109  POPS      H5Y           -11.4213653832       24.6494190427       -9.2180285343  MEMB      103             0.0000000000
     13734       109  POPS      C36           -11.3888100595       22.5504099664       -9.3090533718  MEMB      103             0.0000000000
     13735       109  POPS      H6X           -10.3882958690       22.4284564894       -9.7764076107  MEMB      103             0.0000000000
     13736       109  POPS      H6Y           -12.0583791561       21.7168182555       -9.6109203057  MEMB      103             0.0000000000
     13737       109  POPS      C37           -11.0012353676       22.4679144048       -7.7762870520  MEMB      103             0.0000000000
     13738       109  POPS      H7X           -10.2285667137       23.2153453562       -7.4958390361  MEMB      103             0.0000000000
     13739       109  POPS      H7Y           -10.6051305901       21.4463955981       -7.5921103624  MEMB      103             0.0000000000
     13740       109  POPS      C38           -12.1485899905       22.6246193168       -6.7701140062  MEMB      103             0.0000000000
     13741       109  POPS      H8X           -12.8752645397       21.8788496441       -7.1575317316  MEMB      103             0.0000000000
     13742       109  POPS      H8Y           -12.3981348720       23.7071505541       -6.7569047274  MEMB      103             0.0000000000
     13743       109  POPS      C39           -11.8004162196       22.2758251828       -5.3587641058  MEMB      103             0.0000000000
     13744       109  POPS      H9X           -11.1069631349       23.0272119495       -4.9241822193  MEMB      103             0.0000000000
     13745       109  POPS      H9Y           -11.4361710503       21.2269174866       -5.3967006120  MEMB      103             0.0000000000
     13746       109  POPS      C310          -13.0474130525       22.3020154848       -4.4890582367  MEMB      103             0.0000000000
     13747       109  POPS      H10X          -12.8049540243       21.8251027760       -3.5153589953  MEMB      103             0.0000000000
     13748       109  POPS      H10Y          -13.7809477706       21.5859960054       -4.9175011333  MEMB      103             0.0000000000
     13749       109  POPS      C311          -13.7994004919       23.6344020984       -4.2302356041  MEMB      103             0.0000000000
     13750       109  POPS      H11X          -13.9890274142       24.0773447065       -5.2313176689  MEMB      103             0.0000000000
     13751       109  POPS      H11Y          -13.1642426124       24.2668297379       -3.5737824177  MEMB      103             0.0000000000
     13752       109  POPS      C312          -15.1830961547       23.4832265177       -3.5730371964  MEMB      103             0.0000000000
     13753       109  POPS      H12X          -15.0588299062       23.2253726556       -2.4995432534  MEMB      103             0.0000000000
     13754       109  POPS      H12Y          -15.6870917930       22.6656571043       -4.1315085023  MEMB      103             0.0000000000
     13755       109  POPS      C313          -16.1016824122       24.7302699232       -3.9262628524  MEMB      103             0.0000000000
     13756       109  POPS      H13X          -17.1749533930       24.4655079180       -3.8153054698  MEMB      103             0.0000000000
     13757       109  POPS      H13Y          -15.9417308429       25.0844800700       -4.9670658331  MEMB      103             0.0000000000
     13758       109  POPS      C314          -15.8811661434       25.9686457982       -2.9813282175  MEMB      103             0.0000000000
     13759       109  POPS      H14X          -16.3996857912       26.9300699157       -3.1841123836  MEMB      103             0.0000000000
     13760       109  POPS      H14Y          -14.7842023409       26.1388536423       -3.0262812659  MEMB      103             0.0000000000
     13761       109  POPS      C315          -16.2227864452       25.7137141537       -1.5088610507  MEMB      103             0.0000000000
     13762       109  POPS      H15X          -16.2283739656       26.7006575736       -0.9987320256  MEMB      103             0.0000000000
     13763       109  POPS      H15Y          -15.3797288381       25.1139865047       -1.1040134415  MEMB      103             0.0000000000
     13764       109  POPS      C316          -17.6382309048       25.0903464178       -1.2719113979  MEMB      103             0.0000000000
     13765       109  POPS      H16X          -17.7604907297       24.9115412655       -0.1822326319  MEMB      103             0.0000000000
     13766       109  POPS      H16Y          -17.8210323003       24.1369014455       -1.8121407353  MEMB      103             0.0000000000
     13767       109  POPS      H16Z          -18.4057697980       25.8004721917       -1.6473138227  MEMB      103             0.0000000000
     13768       110  POPC      N              15.7006190352      -22.7825374822      -19.4013397561  MEMB      104             0.0000000000
     13769       110  POPC      C12            16.3706407316      -23.7491981947      -20.3155596550  MEMB      104             0.0000000000
     13770       110  POPC      H12A           17.0422777216      -23.1895278833      -20.9496519208  MEMB      104             0.0000000000
     13771       110  POPC      H12B           15.6957304233      -24.1684575143      -21.0470770608  MEMB      104             0.0000000000
     13772       110  POPC      C13            16.8162136077      -22.2780965282      -18.4889141186  MEMB      104             0.0000000000
     13773       110  POPC      H13A           17.6582169099      -22.0119032133      -19.1106629527  MEMB      104             0.0000000000
     13774       110  POPC      H13B           16.4790169686      -21.3914662758      -17.9725954042  MEMB      104             0.0000000000
     13775       110  POPC      H13C           17.1152368319      -23.0303506757      -17.7740024370  MEMB      104             0.0000000000
     13776       110  POPC      C14            15.1026633530      -21.6368782389      -20.1192459757  MEMB      104             0.0000000000
     13777       110  POPC      H14A           14.4582677136      -21.0587415441      -19.4735590033  MEMB      104             0.0000000000
     13778       110  POPC      H14B           15.8485699564      -20.9330899568      -20.4579275078  MEMB      104             0.0000000000
     13779       110  POPC      H14C           14.3885030404      -22.0256387484      -20.8300485226  MEMB      104             0.0000000000
     13780       110  POPC      C15            14.6216448155      -23.4077949083      -18.5747770866  MEMB      104             0.0000000000
     13781       110  POPC      H15A           13.8373994772      -23.8045629251      -19.2024190849  MEMB      104             0.0000000000
     13782       110  POPC      H15B           14.2863054635      -22.6765447717      -17.8542072680  MEMB      104             0.0000000000
     13783       110  POPC      H15C           14.9325372202      -24.2576773434      -17.9853316758  MEMB      104             0.0000000000
     13784       110  POPC      C11            17.1166536488      -24.9997493870      -19.6624507607  MEMB      104             0.0000000000
     13785       110  POPC      H11A           17.3276627786      -25.7139614854      -20.4868883577  MEMB      104             0.0000000000
     13786       110  POPC      H11B           16.4139392438      -25.5200504334      -18.9770308838  MEMB      104             0.0000000000
     13787       110  POPC      P              19.3437704656      -25.5615658346      -18.4916536109  MEMB      104             0.0000000000
     13788       110  POPC      O13            20.3848265378      -25.7046793459      -19.5599572038  MEMB      104             0.0000000000
     13789       110  POPC      O14            18.7250843467      -26.8481383696      -18.1651189773  MEMB      104             0.0000000000
     13790       110  POPC      O12            18.2896301503      -24.5261257773      -18.9830382453  MEMB      104             0.0000000000
     13791       110  POPC      O11            20.0608517935      -24.8815637047      -17.2379446124  MEMB      104             0.0000000000
     13792       110  POPC      C1             19.2077061740      -24.4207059560      -16.2075418478  MEMB      104             0.0000000000
     13793       110  POPC      HA             18.1491810532      -24.7555465923      -16.1659804501  MEMB      104             0.0000000000
     13794       110  POPC      HB             19.0521177456      -23.3606847601      -16.5015970102  MEMB      104             0.0000000000
     13795       110  POPC      C2             19.7476589064      -24.5623329256      -14.7929031572  MEMB      104             0.0000000000
     13796       110  POPC      HS             20.6789349235      -23.9708870802      -14.6616103185  MEMB      104             0.0000000000
     13797       110  POPC      O21            20.0213815109      -25.9099755310      -14.4994263376  MEMB      104             0.0000000000
     13798       110  POPC      C21            21.2539160215      -26.3568010715      -14.6346663022  MEMB      104             0.0000000000
     13799       110  POPC      O22            22.1574565423      -25.8867469002      -15.2884826714  MEMB      104             0.0000000000
     13800       110  POPC      C22            21.2618825356      -27.7079955155      -13.9038231780  MEMB      104             0.0000000000
     13801       110  POPC      H2R            22.2490291332      -27.7817894621      -13.3994255592  MEMB      104             0.0000000000
     13802       110  POPC      H2S            21.1644363093      -28.5907263529      -14.5713645241  MEMB      104             0.0000000000
     13803       110  POPC      C3             18.8039489652      -23.9650692589      -13.7561589625  MEMB      104             0.0000000000
     13804       110  POPC      HX             17.8270293514      -24.4428067718      -13.9835703000  MEMB      104             0.0000000000
     13805       110  POPC      HY             18.5692509722      -22.9000821456      -13.9683861086  MEMB      104             0.0000000000
     13806       110  POPC      O31            19.2051368893      -24.1934260296      -12.4187528327  MEMB      104             0.0000000000
     13807       110  POPC      C31            20.1556494678      -23.4019358125      -11.9731847071  MEMB      104             0.0000000000
     13808       110  POPC      O32            20.5054029652      -22.3340392802      -12.5025890101  MEMB      104             0.0000000000
     13809       110  POPC      C32            20.6767152111      -23.9748597969      -10.6114721764  MEMB      104             0.0000000000
     13810       110  POPC      H2X            21.1181337017      -24.9922189942      -10.6781869540  MEMB      104             0.0000000000
     13811       110  POPC      H2Y            19.7390888006      -23.9709175523      -10.0155174644  MEMB      104             0.0000000000
     13812       110  POPC      C23            20.1364033165      -27.8475534352      -12.8682132618  MEMB      104             0.0000000000
     13813       110  POPC      H3R            19.1307250377      -27.8555550859      -13.3403023981  MEMB      104             0.0000000000
     13814       110  POPC      H3S            20.2318267326      -26.9862066806      -12.1730175178  MEMB      104             0.0000000000
     13815       110  POPC      C24            20.2600248334      -29.1682465781      -12.0507816236  MEMB      104             0.0000000000
     13816       110  POPC      H4R            21.2300488189      -29.0705047180      -11.5180326748  MEMB      104             0.0000000000
     13817       110  POPC      H4S            20.4291798731      -30.0466075850      -12.7097120726  MEMB      104             0.0000000000
     13818       110  POPC      C25            19.1217950119      -29.3841535786      -11.1172688312  MEMB      104             0.0000000000
     13819       110  POPC      H5R            19.2653822696      -30.3009577036      -10.5063887216  MEMB      104             0.0000000000
     13820       110  POPC      H5S            18.1911675667      -29.4945276300      -11.7139863040  MEMB      104             0.0000000000
     13821       110  POPC      C26            18.8920501661      -28.2781781010      -10.0351233959  MEMB      104             0.0000000000
     13822       110  POPC      H6R            18.2426701320      -28.7465679992       -9.2649040220  MEMB      104             0.0000000000
     13823       110  POPC      H6S            18.2986317964      -27.4762496823      -10.5240879631  MEMB      104             0.0000000000
     13824       110  POPC      C27            20.1203234412      -27.6471780186       -9.4501554967  MEMB      104             0.0000000000
     13825       110  POPC      H7R            19.7960705998      -26.7630513636       -8.8606626491  MEMB      104             0.0000000000
     13826       110  POPC      H7S            20.8993627463      -27.3013138558      -10.1627538319  MEMB      104             0.0000000000
     13827       110  POPC      C28            20.9133378932      -28.6122546352       -8.5403971849  MEMB      104             0.0000000000
     13828       110  POPC      H8R            21.2322496536      -29.5148536875       -9.1042509377  MEMB      104             0.0000000000
     13829       110  POPC      H8S            20.2812681412      -29.0013458241       -7.7137072680  MEMB      104             0.0000000000
     13830       110  POPC      C29            22.1574684392      -27.9796038827       -7.9708149889  MEMB      104             0.0000000000
     13831       110  POPC      H91            23.0114027623      -28.0776569109       -8.6572413464  MEMB      104             0.0000000000
     13832       110  POPC      C210           22.1651703971      -27.2529787831       -6.7879553515  MEMB      104             0.0000000000
     13833       110  POPC      H101           23.0859152642      -26.7642939007       -6.4366501328  MEMB      104             0.0000000000
     13834       110  POPC      C211           20.9890438565      -27.0204006715       -5.8901711815  MEMB      104             0.0000000000
     13835       110  POPC      H11R           21.1877839359      -27.6255981527       -4.9799194105  MEMB      104             0.0000000000
     13836       110  POPC      H11S           20.1013981308      -27.4159571249       -6.4286329147  MEMB      104             0.0000000000
     13837       110  POPC      C212           20.5566360480      -25.5911857991       -5.4471212046  MEMB      104             0.0000000000
     13838       110  POPC      H12R           20.5512663779      -24.8996555127       -6.3166483465  MEMB      104             0.0000000000
     13839       110  POPC      H12S           21.2874244222      -25.2650714812       -4.6764592790  MEMB      104             0.0000000000
     13840       110  POPC      C213           19.1411881259      -25.4989524898       -4.8147517552  MEMB      104             0.0000000000
     13841       110  POPC      H13R           18.9607297399      -24.4181985178       -4.6311037925  MEMB      104             0.0000000000
     13842       110  POPC      H13S           18.8726451260      -25.9333223329       -3.8280770873  MEMB      104             0.0000000000
     13843       110  POPC      C214           17.9622985410      -26.0528047900       -5.6680416957  MEMB      104             0.0000000000
     13844       110  POPC      H14R           17.8096709720      -27.1366434732       -5.4774640994  MEMB      104             0.0000000000
     13845       110  POPC      H14S           18.2638233567      -25.9288521952       -6.7301335377  MEMB      104             0.0000000000
     13846       110  POPC      C215           16.7007982070      -25.2455594262       -5.5456297858  MEMB      104             0.0000000000
     13847       110  POPC      H15R           16.1683408534      -25.4826634512       -6.4914579291  MEMB      104             0.0000000000
     13848       110  POPC      H15S           16.7905862474      -24.1422216069       -5.4512650740  MEMB      104             0.0000000000
     13849       110  POPC      C216           15.6595085886      -25.6761155195       -4.4777129355  MEMB      104             0.0000000000
     13850       110  POPC      H16R           15.5199831172      -26.7726369576       -4.3659346313  MEMB      104             0.0000000000
     13851       110  POPC      H16S           14.7174957908      -25.1389647849       -4.7193783774  MEMB      104             0.0000000000
     13852       110  POPC      C217           16.0941512027      -25.2398348364       -3.0681020774  MEMB      104             0.0000000000
     13853       110  POPC      H17R           15.8524685446      -24.1564724755       -3.0208129215  MEMB      104             0.0000000000
     13854       110  POPC      H17S           17.1765449434      -25.3308535009       -2.8347327830  MEMB      104             0.0000000000
     13855       110  POPC      C218           15.4500028998      -25.9214018959       -1.8231185386  MEMB      104             0.0000000000
     13856       110  POPC      H18R           15.6756034921      -25.5790509356       -0.7905382133  MEMB      104             0.0000000000
     13857       110  POPC      H18S           15.5851641129      -27.0174447325       -1.9445371561  MEMB      104             0.0000000000
     13858       110  POPC      H18T           14.3611138995      -25.7373056478       -1.9445669268  MEMB      104             0.0000000000
     13859       110  POPC      C33            21.6600200262      -23.0010468903       -9.9333883847  MEMB      104             0.0000000000
     13860       110  POPC      H3X            21.2267099200      -21.9809930355       -9.8555847555  MEMB      104             0.0000000000
     13861       110  POPC      H3Y            22.6726661736      -23.1518602757      -10.3648099397  MEMB      104             0.0000000000
     13862       110  POPC      C34            21.7972008961      -23.2644304715       -8.4206878632  MEMB      104             0.0000000000
     13863       110  POPC      H4X            22.1170412778      -24.3067875601       -8.2073462589  MEMB      104             0.0000000000
     13864       110  POPC      H4Y            20.8039271984      -23.0667309926       -7.9639126917  MEMB      104             0.0000000000
     13865       110  POPC      C35            22.9891107772      -22.5214369884       -7.7183739750  MEMB      104             0.0000000000
     13866       110  POPC      H5X            22.8486897706      -21.4201105536       -7.7593888568  MEMB      104             0.0000000000
     13867       110  POPC      H5Y            23.8572935072      -22.7306734730       -8.3792816676  MEMB      104             0.0000000000
     13868       110  POPC      C36            23.2505616251      -22.9945695544       -6.2713239006  MEMB      104             0.0000000000
     13869       110  POPC      H6X            24.2603083515      -22.6893072200       -5.9226872940  MEMB      104             0.0000000000
     13870       110  POPC      H6Y            23.2646881916      -24.1023891533       -6.1885158803  MEMB      104             0.0000000000
     13871       110  POPC      C37            22.2458714318      -22.4125642529       -5.2225986056  MEMB      104             0.0000000000
     13872       110  POPC      H7X            21.2683635212      -22.8989469575       -5.4281011963  MEMB      104             0.0000000000
     13873       110  POPC      H7Y            22.0324461751      -21.3460688442       -5.4492213787  MEMB      104             0.0000000000
     13874       110  POPC      C38            22.5150503926      -22.6187309413       -3.7199524745  MEMB      104             0.0000000000
     13875       110  POPC      H8X            23.5586960150      -22.2489558572       -3.6283503219  MEMB      104             0.0000000000
     13876       110  POPC      H8Y            22.4246033910      -23.7093486204       -3.5283970281  MEMB      104             0.0000000000
     13877       110  POPC      C39            21.5419658363      -21.8892643459       -2.7520209296  MEMB      104             0.0000000000
     13878       110  POPC      H9X            21.3354968146      -20.9114747103       -3.2374263221  MEMB      104             0.0000000000
     13879       110  POPC      H9Y            21.9516978105      -21.7267774910       -1.7321980366  MEMB      104             0.0000000000
     13880       110  POPC      C310           20.2275863061      -22.5943506837       -2.6459531297  MEMB      104             0.0000000000
     13881       110  POPC      H10X           20.3878973694      -23.6618973215       -2.3833398425  MEMB      104             0.0000000000
     13882       110  POPC      H10Y           19.8161703845      -22.6309576923       -3.6773200706  MEMB      104             0.0000000000
     13883       110  POPC      C311           19.1214804444      -22.0402085067       -1.6509876503  MEMB      104             0.0000000000
     13884       110  POPC      H11X           18.3438538082      -22.8326281901       -1.6920878741  MEMB      104             0.0000000000
     13885       110  POPC      H11Y           18.7531787679      -21.1135722757       -2.1409059187  MEMB      104             0.0000000000
     13886       110  POPC      C312           19.6344232082      -21.7696542107       -0.2072931292  MEMB      104             0.0000000000
     13887       110  POPC      H12X           19.7954826378      -20.6940080086        0.0193469575  MEMB      104             0.0000000000
     13888       110  POPC      H12Y           20.6124225937      -22.2966978526       -0.1993175898  MEMB      104             0.0000000000
     13889       110  POPC      C313           18.5321714863      -22.3589243645        0.7984955386  MEMB      104             0.0000000000
     13890       110  POPC      H13X           17.5280559705      -21.9529580392        0.5509803095  MEMB      104             0.0000000000
     13891       110  POPC      H13Y           18.8899617043      -21.9560652477        1.7700986031  MEMB      104             0.0000000000
     13892       110  POPC      C314           18.2956697806      -23.8928458260        0.8333881972  MEMB      104             0.0000000000
     13893       110  POPC      H14X           19.3277999592      -24.2567923228        1.0246237702  MEMB      104             0.0000000000
     13894       110  POPC      H14Y           18.0479531251      -24.3052338500       -0.1680570695  MEMB      104             0.0000000000
     13895       110  POPC      C315           17.4307033031      -24.2839333066        1.9881946113  MEMB      104             0.0000000000
     13896       110  POPC      H15X           17.5371875626      -23.5526969441        2.8178168813  MEMB      104             0.0000000000
     13897       110  POPC      H15Y           17.8448804971      -25.1832878785        2.4921181240  MEMB      104             0.0000000000
     13898       110  POPC      C316           15.9769596648      -24.5939163059        1.6456897076  MEMB      104             0.0000000000
     13899       110  POPC      H16X           15.8352983650      -25.5173468419        1.0444170709  MEMB      104             0.0000000000
     13900       110  POPC      H16Y           15.7202181753      -23.6332697288        1.1501480945  MEMB      104             0.0000000000
     13901       110  POPC      H16Z           15.2923768924      -24.6079679691        2.5206010421  MEMB      104             0.0000000000
     13902       111  POPS      N              22.7707513352       17.0611467716      -17.3322462042  MEMB      105             0.0000000000
     13903       111  POPS      HN1            22.5814622855       16.0673220382      -17.5732477741  MEMB      105             0.0000000000
     13904       111  POPS      HN2            23.6305394333       17.2485820094      -16.7779607070  MEMB      105             0.0000000000
     13905       111  POPS      HN3            22.0045941750       17.3066264077      -16.6731992297  MEMB      105             0.0000000000
     13906       111  POPS      C12            22.9149888454       17.8810652788      -18.5727656689  MEMB      105             0.0000000000
     13907       111  POPS      H12A           22.0590847978       17.6169538604      -19.1761507229  MEMB      105             0.0000000000
     13908       111  POPS      C13            24.1339264444       17.5832847126      -19.3093360325  MEMB      105             0.0000000000
     13909       111  POPS      O13A           24.9342350164       16.6190393167      -18.9152503743  MEMB      105             0.0000000000
     13910       111  POPS      O13B           24.3129190933       18.2437846323      -20.3832638557  MEMB      105             0.0000000000
     13911       111  POPS      C11            22.9003597463       19.4392882402      -18.2647070380  MEMB      105             0.0000000000
     13912       111  POPS      H11A           23.8217930849       19.7385319230      -17.7208919515  MEMB      105             0.0000000000
     13913       111  POPS      H11B           21.9955671230       19.6491186167      -17.6550821155  MEMB      105             0.0000000000
     13914       111  POPS      P              22.6272558836       21.8391408229      -19.2670860467  MEMB      105             0.0000000000
     13915       111  POPS      O13            21.5767231688       22.2739957390      -18.3141775430  MEMB      105             0.0000000000
     13916       111  POPS      O14            22.6578633393       22.5079804067      -20.6027735696  MEMB      105             0.0000000000
     13917       111  POPS      O12            22.6574009880       20.1988079935      -19.4939088417  MEMB      105             0.0000000000
     13918       111  POPS      O11            24.0850912333       21.8947127833      -18.5444847826  MEMB      105             0.0000000000
     13919       111  POPS      C1             25.2737794639       21.6528690744      -19.2526601073  MEMB      105             0.0000000000
     13920       111  POPS      HA             25.5993700038       22.5453433466      -19.8286820473  MEMB      105             0.0000000000
     13921       111  POPS      HB             25.1747018954       20.9091577730      -20.0720489823  MEMB      105             0.0000000000
     13922       111  POPS      C2             26.5031948579       20.9944811075      -18.3925150246  MEMB      105             0.0000000000
     13923       111  POPS      HS             27.3912932290       20.8946510768      -19.0525424246  MEMB      105             0.0000000000
     13924       111  POPS      O21            26.1287371390       19.8148212962      -17.6435912944  MEMB      105             0.0000000000
     13925       111  POPS      C21            27.0764521013       19.0478366235      -17.0607426681  MEMB      105             0.0000000000
     13926       111  POPS      O22            28.2883047885       19.1921065328      -17.3082486861  MEMB      105             0.0000000000
     13927       111  POPS      C22            26.3926886441       18.0019530568      -16.3337768431  MEMB      105             0.0000000000
     13928       111  POPS      H2R            26.2941405925       16.9968580320      -16.7968029923  MEMB      105             0.0000000000
     13929       111  POPS      H2S            25.4088356592       18.3826989033      -15.9853707622  MEMB      105             0.0000000000
     13930       111  POPS      C3             26.9034656660       22.1099146898      -17.3499309418  MEMB      105             0.0000000000
     13931       111  POPS      HX             27.3318186957       22.9955768764      -17.8661062965  MEMB      105             0.0000000000
     13932       111  POPS      HY             27.6693622698       21.6085078396      -16.7203957779  MEMB      105             0.0000000000
     13933       111  POPS      O31            25.8249220289       22.5622791362      -16.5097554556  MEMB      105             0.0000000000
     13934       111  POPS      C31            26.3284861031       23.1023786260      -15.3994747932  MEMB      105             0.0000000000
     13935       111  POPS      O32            27.4993057715       23.2350071032      -15.1463988420  MEMB      105             0.0000000000
     13936       111  POPS      C32            25.1025369144       23.4135997521      -14.4975139370  MEMB      105             0.0000000000
     13937       111  POPS      H2X            24.4762486604       22.5172848950      -14.3007807587  MEMB      105             0.0000000000
     13938       111  POPS      H2Y            24.5144116721       24.1653011650      -15.0661743613  MEMB      105             0.0000000000
     13939       111  POPS      C23            27.0928881941       17.7006516991      -14.9724105661  MEMB      105             0.0000000000
     13940       111  POPS      H3R            27.2299924374       18.6698622658      -14.4469068155  MEMB      105             0.0000000000
     13941       111  POPS      H3S            28.0414727373       17.1368763400      -15.1015083724  MEMB      105             0.0000000000
     13942       111  POPS      C24            26.2841691557       16.8059161553      -14.0778075869  MEMB      105             0.0000000000
     13943       111  POPS      H4R            26.9569358428       16.2504392796      -13.3899476677  MEMB      105             0.0000000000
     13944       111  POPS      H4S            25.7471722533       16.0253409178      -14.6580298361  MEMB      105             0.0000000000
     13945       111  POPS      C25            25.2198795181       17.4637390077      -13.2933038936  MEMB      105             0.0000000000
     13946       111  POPS      H5R            24.3865173327       17.6142853691      -14.0124450789  MEMB      105             0.0000000000
     13947       111  POPS      H5S            25.5536698841       18.5144061126      -13.1554496666  MEMB      105             0.0000000000
     13948       111  POPS      C26            24.7465540875       16.8048600497      -12.0061999617  MEMB      105             0.0000000000
     13949       111  POPS      H6R            25.7322570420       16.4289040022      -11.6578215313  MEMB      105             0.0000000000
     13950       111  POPS      H6S            24.1586012245       15.9308433397      -12.3593674762  MEMB      105             0.0000000000
     13951       111  POPS      C27            23.9583010181       17.7992903395      -11.1092174832  MEMB      105             0.0000000000
     13952       111  POPS      H7R            23.3295698767       17.2076660596      -10.4099330828  MEMB      105             0.0000000000
     13953       111  POPS      H7S            23.2484711376       18.4480858807      -11.6655689370  MEMB      105             0.0000000000
     13954       111  POPS      C28            24.8793001587       18.8426528646      -10.3795507794  MEMB      105             0.0000000000
     13955       111  POPS      H8R            24.1717058908       19.5172522663       -9.8517749985  MEMB      105             0.0000000000
     13956       111  POPS      H8S            25.4240917117       19.4512662586      -11.1326197033  MEMB      105             0.0000000000
     13957       111  POPS      C29            25.8512586946       18.2416537061       -9.3464282288  MEMB      105             0.0000000000
     13958       111  POPS      H91            26.8195633477       17.8692468170       -9.7120772571  MEMB      105             0.0000000000
     13959       111  POPS      C210           25.8044929203       18.1723909677       -8.0212923165  MEMB      105             0.0000000000
     13960       111  POPS      H101           26.5859116630       17.7637102793       -7.3637480353  MEMB      105             0.0000000000
     13961       111  POPS      C211           24.6564721237       18.7627023267       -7.1801864203  MEMB      105             0.0000000000
     13962       111  POPS      H11R           24.0987748188       17.8213539568       -6.9874220235  MEMB      105             0.0000000000
     13963       111  POPS      H11S           23.8099551053       19.2081161739       -7.7452853543  MEMB      105             0.0000000000
     13964       111  POPS      C212           25.0040041054       19.3933865513       -5.8414055761  MEMB      105             0.0000000000
     13965       111  POPS      H12R           24.8852495146       20.4966822376       -5.8957835098  MEMB      105             0.0000000000
     13966       111  POPS      H12S           26.0590358923       19.0995735192       -5.6545821374  MEMB      105             0.0000000000
     13967       111  POPS      C213           24.1298152203       18.8384777396       -4.6346747380  MEMB      105             0.0000000000
     13968       111  POPS      H13R           24.0848721614       17.7283874711       -4.6355106543  MEMB      105             0.0000000000
     13969       111  POPS      H13S           23.1166113401       19.2537776579       -4.8224642184  MEMB      105             0.0000000000
     13970       111  POPS      C214           24.6050682904       19.3993922902       -3.2563392238  MEMB      105             0.0000000000
     13971       111  POPS      H14R           23.8255338844       20.1286581725       -2.9484136559  MEMB      105             0.0000000000
     13972       111  POPS      H14S           25.5699232058       19.9381749701       -3.3707470249  MEMB      105             0.0000000000
     13973       111  POPS      C215           24.8503458891       18.2841958554       -2.1712818873  MEMB      105             0.0000000000
     13974       111  POPS      H15R           25.9261879762       18.0594571124       -2.3336926872  MEMB      105             0.0000000000
     13975       111  POPS      H15S           24.1545369949       17.4588772590       -2.4339983391  MEMB      105             0.0000000000
     13976       111  POPS      C216           24.7315054556       18.6121776033       -0.6952439611  MEMB      105             0.0000000000
     13977       111  POPS      H16R           23.7050176758       19.0324184411       -0.6316726471  MEMB      105             0.0000000000
     13978       111  POPS      H16S           25.3929860298       19.5035308821       -0.6477667152  MEMB      105             0.0000000000
     13979       111  POPS      C217           24.9431657363       17.3716671130        0.2785711576  MEMB      105             0.0000000000
     13980       111  POPS      H17R           24.8949380513       17.7169379077        1.3334565664  MEMB      105             0.0000000000
     13981       111  POPS      H17S           25.9347760141       16.9500167066        0.0079404597  MEMB      105             0.0000000000
     13982       111  POPS      C218           23.8139771152       16.3222026169        0.1163411799  MEMB      105             0.0000000000
     13983       111  POPS      H18R           23.3635816314       16.1287932833       -0.8806844200  MEMB      105             0.0000000000
     13984       111  POPS      H18S           22.9810669170       16.7465085652        0.7167956953  MEMB      105             0.0000000000
     13985       111  POPS      H18T           24.1331160691       15.3586467969        0.5680399449  MEMB      105             0.0000000000
     13986       111  POPS      C33            25.4712441981       24.0543324754      -13.1272025737  MEMB      105             0.0000000000
     13987       111  POPS      H3X            25.5151792493       25.1626731870      -13.1902253236  MEMB      105             0.0000000000
     13988       111  POPS      H3Y            26.4869259678       23.7530228811      -12.7926517598  MEMB      105             0.0000000000
     13989       111  POPS      C34            24.4643401287       23.6153296463      -12.0395721119  MEMB      105             0.0000000000
     13990       111  POPS      H4X            24.0950419588       22.5728957635      -12.1457374596  MEMB      105             0.0000000000
     13991       111  POPS      H4Y            23.6108868134       24.3147733609      -12.1688654923  MEMB      105             0.0000000000
     13992       111  POPS      C35            24.8619872896       23.8747719350      -10.5357004407  MEMB      105             0.0000000000
     13993       111  POPS      H5X            25.4921668576       24.7835702545      -10.6419114519  MEMB      105             0.0000000000
     13994       111  POPS      H5Y            25.5406709846       23.0277683529      -10.2984365361  MEMB      105             0.0000000000
     13995       111  POPS      C36            23.7813607232       23.8597669947       -9.5138057722  MEMB      105             0.0000000000
     13996       111  POPS      H6X            23.2852553316       22.8722100621       -9.6275248099  MEMB      105             0.0000000000
     13997       111  POPS      H6Y            23.0707942123       24.7117931143       -9.5726907462  MEMB      105             0.0000000000
     13998       111  POPS      C37            24.2476784808       23.7732079050       -8.0445902957  MEMB      105             0.0000000000
     13999       111  POPS      H7X            24.6817864509       24.7780716181       -7.8545362180  MEMB      105             0.0000000000
     14000       111  POPS      H7Y            25.0071380843       22.9826882872       -7.8639782515  MEMB      105             0.0000000000
     14001       111  POPS      C38            23.0718934611       23.5501826754       -7.1057769324  MEMB      105             0.0000000000
     14002       111  POPS      H8X            22.8151204300       22.4733826810       -7.2000666842  MEMB      105             0.0000000000
     14003       111  POPS      H8Y            22.1676865922       24.1606400389       -7.3157105938  MEMB      105             0.0000000000
     14004       111  POPS      C39            23.4075165679       23.7434919482       -5.6371517069  MEMB      105             0.0000000000
     14005       111  POPS      H9X            23.5296083530       24.8285674951       -5.4321502171  MEMB      105             0.0000000000
     14006       111  POPS      H9Y            24.3834548461       23.2701902258       -5.3966290292  MEMB      105             0.0000000000
     14007       111  POPS      C310           22.3076707570       23.1730386235       -4.7129988104  MEMB      105             0.0000000000
     14008       111  POPS      H10X           22.1587138089       22.0925592338       -4.9244154630  MEMB      105             0.0000000000
     14009       111  POPS      H10Y           21.3902495602       23.7382209664       -4.9836048356  MEMB      105             0.0000000000
     14010       111  POPS      C311           22.5849033917       23.0591668194       -3.2033771016  MEMB      105             0.0000000000
     14011       111  POPS      H11X           22.8865518673       24.0227427787       -2.7398581241  MEMB      105             0.0000000000
     14012       111  POPS      H11Y           23.5442951430       22.5134753407       -3.0764559244  MEMB      105             0.0000000000
     14013       111  POPS      C312           21.5198426790       22.2034656439       -2.5246652983  MEMB      105             0.0000000000
     14014       111  POPS      H12X           21.2727531716       21.3203787727       -3.1519001793  MEMB      105             0.0000000000
     14015       111  POPS      H12Y           20.6104816451       22.8058125361       -2.3135679097  MEMB      105             0.0000000000
     14016       111  POPS      C313           21.8781490093       21.7423974116       -1.1236556357  MEMB      105             0.0000000000
     14017       111  POPS      H13X           22.8471179802       21.2350790159       -1.3187152497  MEMB      105             0.0000000000
     14018       111  POPS      H13Y           21.1775818411       21.0125833668       -0.6644191736  MEMB      105             0.0000000000
     14019       111  POPS      C314           22.0920277755       22.8399919814       -0.0656568202  MEMB      105             0.0000000000
     14020       111  POPS      H14X           21.1170731716       23.3575638439        0.0604544863  MEMB      105             0.0000000000
     14021       111  POPS      H14Y           22.8412026025       23.5183235310       -0.5270926113  MEMB      105             0.0000000000
     14022       111  POPS      C315           22.7228656095       22.3485282492        1.2759781784  MEMB      105             0.0000000000
     14023       111  POPS      H15X           23.0039563744       23.3747366774        1.5956748027  MEMB      105             0.0000000000
     14024       111  POPS      H15Y           23.7043798607       21.8315672970        1.2151299907  MEMB      105             0.0000000000
     14025       111  POPS      C316           21.7077342078       21.7468215087        2.2779500353  MEMB      105             0.0000000000
     14026       111  POPS      H16X           21.2080547083       20.8390811479        1.8771388940  MEMB      105             0.0000000000
     14027       111  POPS      H16Y           20.9665040405       22.5675559333        2.3842245607  MEMB      105             0.0000000000
     14028       111  POPS      H16Z           22.2064243089       21.4960222267        3.2385373160  MEMB      105             0.0000000000
     14029       112  POPC      N              10.6620632488       29.9145051714      -17.2863531886  MEMB      106             0.0000000000
     14030       112  POPC      C12            10.1082912840       30.8833501132      -18.3057625623  MEMB      106             0.0000000000
     14031       112  POPC      H12A           10.8987703331       31.1815098126      -18.9785503927  MEMB      106             0.0000000000
     14032       112  POPC      H12B            9.8963040934       31.8214324236      -17.8143738316  MEMB      106             0.0000000000
     14033       112  POPC      C13             9.5843498348       29.8684077529      -16.2369013918  MEMB      106             0.0000000000
     14034       112  POPC      H13A            9.8991240490       29.1253442265      -15.5191453581  MEMB      106             0.0000000000
     14035       112  POPC      H13B            9.4889509273       30.9038807535      -15.9451913061  MEMB      106             0.0000000000
     14036       112  POPC      H13C            8.6646649112       29.5387299902      -16.6972188851  MEMB      106             0.0000000000
     14037       112  POPC      C14            10.8993901776       28.5363590465      -17.8713891323  MEMB      106             0.0000000000
     14038       112  POPC      H14A            9.9507071201       28.1523820441      -18.2162979196  MEMB      106             0.0000000000
     14039       112  POPC      H14B           11.5919742027       28.4693448190      -18.6973651240  MEMB      106             0.0000000000
     14040       112  POPC      H14C           11.2000287907       27.8950551443      -17.0560697972  MEMB      106             0.0000000000
     14041       112  POPC      C15            11.8816664563       30.6370534120      -16.7100879231  MEMB      106             0.0000000000
     14042       112  POPC      H15A           12.6487449115       30.5662770791      -17.4670431844  MEMB      106             0.0000000000
     14043       112  POPC      H15B           12.2377427915       30.2293840385      -15.7755209164  MEMB      106             0.0000000000
     14044       112  POPC      H15C           11.6457944088       31.6858794353      -16.6065099679  MEMB      106             0.0000000000
     14045       112  POPC      C11             8.8705765312       30.4577163589      -19.1673163426  MEMB      106             0.0000000000
     14046       112  POPC      H11A            8.6966086574       31.3877304627      -19.7496650681  MEMB      106             0.0000000000
     14047       112  POPC      H11B            8.0838704861       30.2629146444      -18.4074038866  MEMB      106             0.0000000000
     14048       112  POPC      P               7.7601736508       28.7261946132      -20.7267526313  MEMB      106             0.0000000000
     14049       112  POPC      O13             8.1921968798       27.3694869537      -21.0773490054  MEMB      106             0.0000000000
     14050       112  POPC      O14             7.3088581569       29.6449668810      -21.8199246436  MEMB      106             0.0000000000
     14051       112  POPC      O12             9.0113514793       29.4088504406      -20.1100540408  MEMB      106             0.0000000000
     14052       112  POPC      O11             6.6659800983       28.5529282818      -19.6881091609  MEMB      106             0.0000000000
     14053       112  POPC      C1              5.2933588535       28.4586944564      -20.0197642217  MEMB      106             0.0000000000
     14054       112  POPC      HA              5.0573613749       27.4260027779      -20.3546882539  MEMB      106             0.0000000000
     14055       112  POPC      HB              5.0351756532       29.2022272266      -20.8038698916  MEMB      106             0.0000000000
     14056       112  POPC      C2              4.4134407251       28.7049991523      -18.7806669543  MEMB      106             0.0000000000
     14057       112  POPC      HS              3.4041609481       29.1337458243      -18.9591381205  MEMB      106             0.0000000000
     14058       112  POPC      O21             5.0590799939       29.5641669067      -17.8483634296  MEMB      106             0.0000000000
     14059       112  POPC      C21             5.0970015879       30.8285612778      -18.1543050164  MEMB      106             0.0000000000
     14060       112  POPC      O22             4.4861331292       31.3700091056      -19.0810560777  MEMB      106             0.0000000000
     14061       112  POPC      C22             6.0276167273       31.6969880765      -17.1863339469  MEMB      106             0.0000000000
     14062       112  POPC      H2R             6.3498527051       32.6459536390      -17.6658642042  MEMB      106             0.0000000000
     14063       112  POPC      H2S             6.9315338404       31.0789664828      -16.9984400662  MEMB      106             0.0000000000
     14064       112  POPC      C3              4.0844282437       27.4124704043      -18.0328963912  MEMB      106             0.0000000000
     14065       112  POPC      HX              3.4954510773       26.8388389055      -18.7801404666  MEMB      106             0.0000000000
     14066       112  POPC      HY              3.3054757245       27.5563256550      -17.2538844239  MEMB      106             0.0000000000
     14067       112  POPC      O31             5.1939826598       26.7607937379      -17.5712181097  MEMB      106             0.0000000000
     14068       112  POPC      C31             5.6414744035       27.0601303006      -16.2694825189  MEMB      106             0.0000000000
     14069       112  POPC      O32             5.1445961239       27.9252370363      -15.6239888179  MEMB      106             0.0000000000
     14070       112  POPC      C32             6.9314282811       26.3302664162      -16.0368185477  MEMB      106             0.0000000000
     14071       112  POPC      H2X             7.6645802553       26.6584402447      -16.8043541530  MEMB      106             0.0000000000
     14072       112  POPC      H2Y             6.8442145289       25.2227454457      -16.0474032321  MEMB      106             0.0000000000
     14073       112  POPC      C23             5.3238789622       31.8946486692      -15.8737381100  MEMB      106             0.0000000000
     14074       112  POPC      H3R             4.9914920423       30.9286608123      -15.4370373885  MEMB      106             0.0000000000
     14075       112  POPC      H3S             4.3658230557       32.4528158543      -15.9437319331  MEMB      106             0.0000000000
     14076       112  POPC      C24             6.3589664353       32.4632170415      -14.8704365782  MEMB      106             0.0000000000
     14077       112  POPC      H4R             6.4042228538       33.5609357955      -15.0356244368  MEMB      106             0.0000000000
     14078       112  POPC      H4S             7.3508427083       31.9932376295      -15.0425446790  MEMB      106             0.0000000000
     14079       112  POPC      C25             5.9819625741       32.3461258344      -13.3510441559  MEMB      106             0.0000000000
     14080       112  POPC      H5R             4.9458478328       32.7388782909      -13.2702175626  MEMB      106             0.0000000000
     14081       112  POPC      H5S             6.5510424831       33.0944723622      -12.7590591003  MEMB      106             0.0000000000
     14082       112  POPC      C26             6.2595039731       30.9219580465      -12.7365257439  MEMB      106             0.0000000000
     14083       112  POPC      H6R             7.3064299732       30.6760388994      -13.0154356171  MEMB      106             0.0000000000
     14084       112  POPC      H6S             5.5575792592       30.1531616620      -13.1245653651  MEMB      106             0.0000000000
     14085       112  POPC      C27             6.1766789513       30.8824987271      -11.1693205145  MEMB      106             0.0000000000
     14086       112  POPC      H7R             5.1778811691       31.2837376877      -10.8941279112  MEMB      106             0.0000000000
     14087       112  POPC      H7S             6.8909244226       31.6698733290      -10.8464963223  MEMB      106             0.0000000000
     14088       112  POPC      C28             6.4983522183       29.5805380178      -10.5186838781  MEMB      106             0.0000000000
     14089       112  POPC      H8R             6.1954239207       29.6331753303       -9.4510772802  MEMB      106             0.0000000000
     14090       112  POPC      H8S             7.5974726672       29.4450650955      -10.6075809925  MEMB      106             0.0000000000
     14091       112  POPC      C29             5.9144069203       28.2810383898      -11.1900262575  MEMB      106             0.0000000000
     14092       112  POPC      H91             6.4659000279       27.8314502115      -12.0289100737  MEMB      106             0.0000000000
     14093       112  POPC      C210            4.8743298411       27.5934757449      -10.8610816386  MEMB      106             0.0000000000
     14094       112  POPC      H101            4.6327662153       26.6321621693      -11.3380750011  MEMB      106             0.0000000000
     14095       112  POPC      C211            3.9742991512       27.9401862685       -9.7511826751  MEMB      106             0.0000000000
     14096       112  POPC      H11R            2.9230898516       27.5981232789       -9.8619675221  MEMB      106             0.0000000000
     14097       112  POPC      H11S            3.9611572200       29.0509134235       -9.7303589595  MEMB      106             0.0000000000
     14098       112  POPC      C212            4.5498878555       27.2982139793       -8.5067524055  MEMB      106             0.0000000000
     14099       112  POPC      H12R            5.6200686380       27.5694589151       -8.6310924420  MEMB      106             0.0000000000
     14100       112  POPC      H12S            4.2999598783       26.2158930003       -8.4858015483  MEMB      106             0.0000000000
     14101       112  POPC      C213            4.0870345337       28.1013280014       -7.2783240141  MEMB      106             0.0000000000
     14102       112  POPC      H13R            3.0100427778       27.8512454066       -7.1693835908  MEMB      106             0.0000000000
     14103       112  POPC      H13S            4.2412695198       29.1705402042       -7.5377814385  MEMB      106             0.0000000000
     14104       112  POPC      C214            4.9736467377       27.6784041597       -6.1052489483  MEMB      106             0.0000000000
     14105       112  POPC      H14R            6.0272935887       27.8443727809       -6.4160605989  MEMB      106             0.0000000000
     14106       112  POPC      H14S            4.9412076141       26.5689595622       -6.1542508147  MEMB      106             0.0000000000
     14107       112  POPC      C215            4.4867815695       28.2688884147       -4.7339006622  MEMB      106             0.0000000000
     14108       112  POPC      H15R            3.5075803345       27.7538504452       -4.6327974299  MEMB      106             0.0000000000
     14109       112  POPC      H15S            4.5011159953       29.3777267078       -4.8016734323  MEMB      106             0.0000000000
     14110       112  POPC      C216            5.2853192272       27.8426021570       -3.4419675648  MEMB      106             0.0000000000
     14111       112  POPC      H16R            6.3430913721       28.1623634988       -3.5568245732  MEMB      106             0.0000000000
     14112       112  POPC      H16S            5.3121580448       26.7333225626       -3.3862929954  MEMB      106             0.0000000000
     14113       112  POPC      C217            4.6572399854       28.3246679531       -2.1360722349  MEMB      106             0.0000000000
     14114       112  POPC      H17R            5.0091034833       27.5925742998       -1.3780814899  MEMB      106             0.0000000000
     14115       112  POPC      H17S            3.5751358344       28.1021353791       -2.2537623297  MEMB      106             0.0000000000
     14116       112  POPC      C218            5.0461679347       29.7421945372       -1.7298859351  MEMB      106             0.0000000000
     14117       112  POPC      H18R            4.1378394954       30.3473319847       -1.9374168527  MEMB      106             0.0000000000
     14118       112  POPC      H18S            5.8438053882       30.0734963683       -2.4286945057  MEMB      106             0.0000000000
     14119       112  POPC      H18T            5.3257099863       29.6938222870       -0.6557179117  MEMB      106             0.0000000000
     14120       112  POPC      C33             7.5535567759       26.7586403599      -14.6857013070  MEMB      106             0.0000000000
     14121       112  POPC      H3X             6.9049315028       26.4291323229      -13.8460402220  MEMB      106             0.0000000000
     14122       112  POPC      H3Y             7.6421406783       27.8655356906      -14.7211473014  MEMB      106             0.0000000000
     14123       112  POPC      C34             9.0242916544       26.2923551532      -14.5132068835  MEMB      106             0.0000000000
     14124       112  POPC      H4X             9.5343209146       26.4822418371      -15.4817803010  MEMB      106             0.0000000000
     14125       112  POPC      H4Y             9.0622475755       25.1900734838      -14.3795818397  MEMB      106             0.0000000000
     14126       112  POPC      C35             9.8975718870       26.9709984942      -13.4238561015  MEMB      106             0.0000000000
     14127       112  POPC      H5X             9.5529916924       28.0064642106      -13.2155379075  MEMB      106             0.0000000000
     14128       112  POPC      H5Y            10.9449408561       27.0606555003      -13.7834402108  MEMB      106             0.0000000000
     14129       112  POPC      C36             9.9004483657       26.1290638117      -12.1108653355  MEMB      106             0.0000000000
     14130       112  POPC      H6X            10.1000860352       25.0568947185      -12.3228074429  MEMB      106             0.0000000000
     14131       112  POPC      H6Y             8.8369127690       26.0324929817      -11.8044552173  MEMB      106             0.0000000000
     14132       112  POPC      C37            10.6774259307       26.6155919974      -10.8598550220  MEMB      106             0.0000000000
     14133       112  POPC      H7X            11.7093901703       26.7669141911      -11.2425714029  MEMB      106             0.0000000000
     14134       112  POPC      H7Y            10.8199299184       25.8797151588      -10.0397940594  MEMB      106             0.0000000000
     14135       112  POPC      C38            10.1654564907       27.8793856807      -10.2151797890  MEMB      106             0.0000000000
     14136       112  POPC      H8X             9.1068999220       27.6790709150       -9.9437891342  MEMB      106             0.0000000000
     14137       112  POPC      H8Y            10.0944478623       28.6434723647      -11.0185795141  MEMB      106             0.0000000000
     14138       112  POPC      C39            11.1124158521       28.4238289591       -9.1587658927  MEMB      106             0.0000000000
     14139       112  POPC      H9X            12.0736389980       28.5877498129       -9.6912140765  MEMB      106             0.0000000000
     14140       112  POPC      H9Y            11.2456920203       27.6124426923       -8.4116311267  MEMB      106             0.0000000000
     14141       112  POPC      C310           10.5503381330       29.7114482700       -8.6166154837  MEMB      106             0.0000000000
     14142       112  POPC      H10X            9.4603459916       29.7884343852       -8.4158386898  MEMB      106             0.0000000000
     14143       112  POPC      H10Y           10.7359129007       30.5030636197       -9.3737342660  MEMB      106             0.0000000000
     14144       112  POPC      C311           11.2228259161       30.1236630781       -7.2349809526  MEMB      106             0.0000000000
     14145       112  POPC      H11X           10.7978385945       31.1420850445       -7.1064364881  MEMB      106             0.0000000000
     14146       112  POPC      H11Y           12.2981818826       30.1949398735       -7.5048879174  MEMB      106             0.0000000000
     14147       112  POPC      C312           10.9083080122       29.0664564082       -6.1764439279  MEMB      106             0.0000000000
     14148       112  POPC      H12X           11.4912531427       28.1548283622       -6.4282986559  MEMB      106             0.0000000000
     14149       112  POPC      H12Y            9.8256446041       28.8211630694       -6.2210752623  MEMB      106             0.0000000000
     14150       112  POPC      C313           11.1756428916       29.3719278111       -4.6794840817  MEMB      106             0.0000000000
     14151       112  POPC      H13X           10.7282156344       30.3490124932       -4.3976411169  MEMB      106             0.0000000000
     14152       112  POPC      H13Y           12.2834267612       29.4120747666       -4.6051586424  MEMB      106             0.0000000000
     14153       112  POPC      C314           10.6596560291       28.3362274280       -3.7124411703  MEMB      106             0.0000000000
     14154       112  POPC      H14X           11.2494015967       27.4116209213       -3.8902716986  MEMB      106             0.0000000000
     14155       112  POPC      H14Y            9.5569660542       28.2046992373       -3.7455504080  MEMB      106             0.0000000000
     14156       112  POPC      C315           10.9962368521       28.7038521841       -2.3121688422  MEMB      106             0.0000000000
     14157       112  POPC      H15X           10.4452041651       28.0009317367       -1.6514203778  MEMB      106             0.0000000000
     14158       112  POPC      H15Y           10.6084366133       29.7222753042       -2.0959608256  MEMB      106             0.0000000000
     14159       112  POPC      C316           12.5399972537       28.7706864444       -1.8673139446  MEMB      106             0.0000000000
     14160       112  POPC      H16X           13.1294596600       27.8764288472       -2.1625392494  MEMB      106             0.0000000000
     14161       112  POPC      H16Y           12.6130269418       28.7739775794       -0.7587218931  MEMB      106             0.0000000000
     14162       112  POPC      H16Z           12.9912954244       29.6389015027       -2.3934817081  MEMB      106             0.0000000000
     14163       113  POPC      N              31.4090943298        5.8196748156      -18.2899860427  MEMB      107             0.0000000000
     14164       113  POPC      C12            30.6584920877        6.4146193007      -19.4896679468  MEMB      107             0.0000000000
     14165       113  POPC      H12A           30.6709345139        5.7403362531      -20.3332243830  MEMB      107             0.0000000000
     14166       113  POPC      H12B           31.2772563955        7.2567485731      -19.7623387052  MEMB      107             0.0000000000
     14167       113  POPC      C13            31.4037225054        6.7499118794      -17.1387662622  MEMB      107             0.0000000000
     14168       113  POPC      H13A           31.9972439917        6.4786649381      -16.2782100371  MEMB      107             0.0000000000
     14169       113  POPC      H13B           31.7138543944        7.6977839247      -17.5532016813  MEMB      107             0.0000000000
     14170       113  POPC      H13C           30.3998536645        6.8093391565      -16.7449188939  MEMB      107             0.0000000000
     14171       113  POPC      C14            30.7899181405        4.4589628027      -17.9477659829  MEMB      107             0.0000000000
     14172       113  POPC      H14A           30.5714201290        3.8673588967      -18.8245005025  MEMB      107             0.0000000000
     14173       113  POPC      H14B           31.4348069729        3.8561257605      -17.3255874737  MEMB      107             0.0000000000
     14174       113  POPC      H14C           29.8954332263        4.5543468767      -17.3501052171  MEMB      107             0.0000000000
     14175       113  POPC      C15            32.8449503068        5.5697656335      -18.6652428647  MEMB      107             0.0000000000
     14176       113  POPC      H15A           33.2816512789        5.1701377296      -17.7619212778  MEMB      107             0.0000000000
     14177       113  POPC      H15B           33.3895674505        6.4685845766      -18.9140736982  MEMB      107             0.0000000000
     14178       113  POPC      H15C           33.0604488577        4.8901190827      -19.4764402087  MEMB      107             0.0000000000
     14179       113  POPC      C11            29.2095858492        7.0587047256      -19.2860611654  MEMB      107             0.0000000000
     14180       113  POPC      H11A           28.9359698829        7.5248359599      -20.2567192339  MEMB      107             0.0000000000
     14181       113  POPC      H11B           29.2823909774        7.9341403848      -18.6058898269  MEMB      107             0.0000000000
     14182       113  POPC      P              27.3181313474        5.3252464971      -19.7366861463  MEMB      107             0.0000000000
     14183       113  POPC      O13            27.4772324591        3.8837062958      -19.4900977387  MEMB      107             0.0000000000
     14184       113  POPC      O14            27.5715629282        5.8287676808      -21.0873011850  MEMB      107             0.0000000000
     14185       113  POPC      O12            28.2206832747        6.1593890522      -18.7124519709  MEMB      107             0.0000000000
     14186       113  POPC      O11            25.9096667744        5.7336001730      -19.1559727289  MEMB      107             0.0000000000
     14187       113  POPC      C1             25.6630976179        7.0377077189      -18.6900651984  MEMB      107             0.0000000000
     14188       113  POPC      HA             24.6219857312        7.2326062152      -19.0253591181  MEMB      107             0.0000000000
     14189       113  POPC      HB             26.2716368411        7.8761580377      -19.0913159287  MEMB      107             0.0000000000
     14190       113  POPC      C2             25.5259940545        7.2851550346      -17.1410504572  MEMB      107             0.0000000000
     14191       113  POPC      HS             24.7798405364        8.0954259912      -16.9960089536  MEMB      107             0.0000000000
     14192       113  POPC      O21            26.7700400187        7.6735054313      -16.5887326325  MEMB      107             0.0000000000
     14193       113  POPC      C21            27.0699079657        8.9702264608      -16.5449817835  MEMB      107             0.0000000000
     14194       113  POPC      O22            26.4961588949        9.9003363544      -17.1385174152  MEMB      107             0.0000000000
     14195       113  POPC      C22            28.4742703936        9.0952784248      -15.8615478909  MEMB      107             0.0000000000
     14196       113  POPC      H2R            28.7100247507       10.1798099051      -15.8112258931  MEMB      107             0.0000000000
     14197       113  POPC      H2S            29.2264425138        8.6011885091      -16.5130329834  MEMB      107             0.0000000000
     14198       113  POPC      C3             25.1387097051        6.0555571307      -16.2636750927  MEMB      107             0.0000000000
     14199       113  POPC      HX             24.2477749243        5.4884258676      -16.6085203743  MEMB      107             0.0000000000
     14200       113  POPC      HY             25.0297133777        6.4071419894      -15.2154246204  MEMB      107             0.0000000000
     14201       113  POPC      O31            26.2292316858        5.0935890529      -16.4657292511  MEMB      107             0.0000000000
     14202       113  POPC      C31            26.8814148542        4.7886799602      -15.3670054473  MEMB      107             0.0000000000
     14203       113  POPC      O32            26.8235603469        5.1694144661      -14.2352671948  MEMB      107             0.0000000000
     14204       113  POPC      C32            27.9059506228        3.6616853559      -15.7521741043  MEMB      107             0.0000000000
     14205       113  POPC      H2X            28.3330226343        3.8959941877      -16.7506878602  MEMB      107             0.0000000000
     14206       113  POPC      H2Y            27.3011475805        2.7298395314      -15.7381237779  MEMB      107             0.0000000000
     14207       113  POPC      C23            28.5424511379        8.4512659763      -14.4202039445  MEMB      107             0.0000000000
     14208       113  POPC      H3R            28.2757109839        7.3870188216      -14.5949857767  MEMB      107             0.0000000000
     14209       113  POPC      H3S            27.8158182716        9.0176285199      -13.7992701785  MEMB      107             0.0000000000
     14210       113  POPC      C24            30.0033238623        8.6417829894      -13.8883929886  MEMB      107             0.0000000000
     14211       113  POPC      H4R            30.3581506952        9.6605464113      -14.1539861172  MEMB      107             0.0000000000
     14212       113  POPC      H4S            30.6315040068        7.8894634390      -14.4115814728  MEMB      107             0.0000000000
     14213       113  POPC      C25            30.0197373470        8.6762105875      -12.3724797270  MEMB      107             0.0000000000
     14214       113  POPC      H5R            29.2123580093        9.3357579965      -11.9884788558  MEMB      107             0.0000000000
     14215       113  POPC      H5S            30.9365860671        9.1176271402      -11.9265413897  MEMB      107             0.0000000000
     14216       113  POPC      C26            29.8007155610        7.2547305282      -11.8101205624  MEMB      107             0.0000000000
     14217       113  POPC      H6R            30.7223490489        6.7256283151      -12.1341012208  MEMB      107             0.0000000000
     14218       113  POPC      H6S            29.0395328356        6.8006390043      -12.4799885712  MEMB      107             0.0000000000
     14219       113  POPC      C27            29.6109038470        7.0815026285      -10.3052528097  MEMB      107             0.0000000000
     14220       113  POPC      H7R            30.1773934505        7.8438719231       -9.7288818468  MEMB      107             0.0000000000
     14221       113  POPC      H7S            29.7954358523        6.0166269010      -10.0477467804  MEMB      107             0.0000000000
     14222       113  POPC      C28            28.1646692558        7.3766834002       -9.8401757158  MEMB      107             0.0000000000
     14223       113  POPC      H8R            27.8311118680        8.3633627864      -10.2268597200  MEMB      107             0.0000000000
     14224       113  POPC      H8S            28.2201404682        7.6009562181       -8.7534628425  MEMB      107             0.0000000000
     14225       113  POPC      C29            27.1933243270        6.2982240220      -10.1646066452  MEMB      107             0.0000000000
     14226       113  POPC      H91            27.0461330619        5.9985596550      -11.2127171657  MEMB      107             0.0000000000
     14227       113  POPC      C210           26.4015047995        5.6819959482       -9.2985515316  MEMB      107             0.0000000000
     14228       113  POPC      H101           25.7289200234        4.9131654003       -9.7066312983  MEMB      107             0.0000000000
     14229       113  POPC      C211           26.2291514150        5.8399175033       -7.8089526768  MEMB      107             0.0000000000
     14230       113  POPC      H11R           25.3548443086        6.4929165802       -7.6003863293  MEMB      107             0.0000000000
     14231       113  POPC      H11S           27.0962362093        6.4214638372       -7.4290996047  MEMB      107             0.0000000000
     14232       113  POPC      C212           26.2076110422        4.4317362281       -7.0580426485  MEMB      107             0.0000000000
     14233       113  POPC      H12R           27.1434735359        3.9027388571       -7.3384793191  MEMB      107             0.0000000000
     14234       113  POPC      H12S           25.3575243599        3.8614911034       -7.4898925290  MEMB      107             0.0000000000
     14235       113  POPC      C213           26.1851298170        4.5242922038       -5.5790372318  MEMB      107             0.0000000000
     14236       113  POPC      H13R           25.1766752232        4.8941761992       -5.2952665124  MEMB      107             0.0000000000
     14237       113  POPC      H13S           26.8652375097        5.3520328203       -5.2847245563  MEMB      107             0.0000000000
     14238       113  POPC      C214           26.6361730786        3.2924366330       -4.7864706756  MEMB      107             0.0000000000
     14239       113  POPC      H14R           27.5617199694        2.9077610350       -5.2657495028  MEMB      107             0.0000000000
     14240       113  POPC      H14S           25.9132217081        2.4524058274       -4.7089425093  MEMB      107             0.0000000000
     14241       113  POPC      C215           27.1165565503        3.5092454036       -3.3700615496  MEMB      107             0.0000000000
     14242       113  POPC      H15R           28.1625150619        3.8832779949       -3.3898487615  MEMB      107             0.0000000000
     14243       113  POPC      H15S           27.2249057440        2.4985727227       -2.9215957841  MEMB      107             0.0000000000
     14244       113  POPC      C216           26.3978756099        4.5279389414       -2.5113829763  MEMB      107             0.0000000000
     14245       113  POPC      H16R           25.3557497489        4.1471931237       -2.4536973554  MEMB      107             0.0000000000
     14246       113  POPC      H16S           26.4485347981        5.5705227989       -2.8918737431  MEMB      107             0.0000000000
     14247       113  POPC      C217           26.9318219075        4.6748081193       -1.1054423486  MEMB      107             0.0000000000
     14248       113  POPC      H17R           26.3035575678        5.4170579366       -0.5681612966  MEMB      107             0.0000000000
     14249       113  POPC      H17S           27.9872447612        5.0156182802       -1.1706493043  MEMB      107             0.0000000000
     14250       113  POPC      C218           26.8959784279        3.3347615843       -0.3353640616  MEMB      107             0.0000000000
     14251       113  POPC      H18R           27.6426786363        2.5941786437       -0.6935488570  MEMB      107             0.0000000000
     14252       113  POPC      H18S           25.8762348625        2.8948985576       -0.3664236601  MEMB      107             0.0000000000
     14253       113  POPC      H18T           27.1227354089        3.5510794989        0.7305205280  MEMB      107             0.0000000000
     14254       113  POPC      C33            29.1526790289        3.6797673544      -14.8137203057  MEMB      107             0.0000000000
     14255       113  POPC      H3X            29.5776962057        4.7061784682      -14.8264330312  MEMB      107             0.0000000000
     14256       113  POPC      H3Y            29.9754356231        3.1641364903      -15.3536434891  MEMB      107             0.0000000000
     14257       113  POPC      C34            28.9752711960        3.0695817921      -13.4817336018  MEMB      107             0.0000000000
     14258       113  POPC      H4X            28.5305120175        2.0606494652      -13.6179899592  MEMB      107             0.0000000000
     14259       113  POPC      H4Y            28.3877514399        3.8184842932      -12.9087705788  MEMB      107             0.0000000000
     14260       113  POPC      C35            30.1732637737        2.8839240540      -12.6206826908  MEMB      107             0.0000000000
     14261       113  POPC      H5X            30.7875237554        3.7983948031      -12.7647271270  MEMB      107             0.0000000000
     14262       113  POPC      H5Y            30.6691063101        2.0250458753      -13.1214716946  MEMB      107             0.0000000000
     14263       113  POPC      C36            29.8410627791        2.7917718845      -11.0887514165  MEMB      107             0.0000000000
     14264       113  POPC      H6X            29.1913378212        1.9153175305      -10.8789748947  MEMB      107             0.0000000000
     14265       113  POPC      H6Y            29.2965011273        3.7243870232      -10.8279781293  MEMB      107             0.0000000000
     14266       113  POPC      C37            31.0564392714        2.5721109769      -10.1656260766  MEMB      107             0.0000000000
     14267       113  POPC      H7X            31.6641181987        3.4962609834      -10.0607728230  MEMB      107             0.0000000000
     14268       113  POPC      H7Y            31.7257379972        1.7661169798      -10.5354010938  MEMB      107             0.0000000000
     14269       113  POPC      C38            30.6953703396        2.2847194291       -8.6665743447  MEMB      107             0.0000000000
     14270       113  POPC      H8X            31.5206867706        1.8750691916       -8.0457996797  MEMB      107             0.0000000000
     14271       113  POPC      H8Y            29.9334435958        1.4874564815       -8.5318126009  MEMB      107             0.0000000000
     14272       113  POPC      C39            30.2737245584        3.4440723500       -7.8674953011  MEMB      107             0.0000000000
     14273       113  POPC      H9X            29.9498633225        3.0832474860       -6.8678756477  MEMB      107             0.0000000000
     14274       113  POPC      H9Y            29.4642389610        3.9409704677       -8.4438169206  MEMB      107             0.0000000000
     14275       113  POPC      C310           31.3553027855        4.4960025101       -7.4336186227  MEMB      107             0.0000000000
     14276       113  POPC      H10X           31.9405570097        4.8204504100       -8.3204850198  MEMB      107             0.0000000000
     14277       113  POPC      H10Y           32.1845886573        4.0319238089       -6.8580861202  MEMB      107             0.0000000000
     14278       113  POPC      C311           30.6981846109        5.7678552208       -6.8889592057  MEMB      107             0.0000000000
     14279       113  POPC      H11X           29.8934978586        6.1448349347       -7.5558076104  MEMB      107             0.0000000000
     14280       113  POPC      H11Y           31.5110882624        6.5160829643       -6.7720664549  MEMB      107             0.0000000000
     14281       113  POPC      C312           30.1563990301        5.6074696381       -5.4916876968  MEMB      107             0.0000000000
     14282       113  POPC      H12X           30.8687287558        5.0082670975       -4.8851703617  MEMB      107             0.0000000000
     14283       113  POPC      H12Y           29.2208030083        5.0226869751       -5.3612633972  MEMB      107             0.0000000000
     14284       113  POPC      C313           29.9297742617        6.9438892058       -4.6700559333  MEMB      107             0.0000000000
     14285       113  POPC      H13X           28.9965757819        7.3081031161       -5.1504827024  MEMB      107             0.0000000000
     14286       113  POPC      H13Y           30.6730076828        7.7160943786       -4.9626723144  MEMB      107             0.0000000000
     14287       113  POPC      C314           29.9265239492        6.7814465587       -3.1238437056  MEMB      107             0.0000000000
     14288       113  POPC      H14X           30.8895680108        6.4058509244       -2.7166648813  MEMB      107             0.0000000000
     14289       113  POPC      H14Y           29.1600295270        6.0135879235       -2.8846768096  MEMB      107             0.0000000000
     14290       113  POPC      C315           29.6557338571        8.1522207410       -2.5213301134  MEMB      107             0.0000000000
     14291       113  POPC      H15X           28.7260252511        8.5359296017       -2.9932722498  MEMB      107             0.0000000000
     14292       113  POPC      H15Y           30.4693480367        8.8497309728       -2.8142991250  MEMB      107             0.0000000000
     14293       113  POPC      C316           29.4796073014        8.1212184641       -1.0177152552  MEMB      107             0.0000000000
     14294       113  POPC      H16X           29.2651065050        9.1832863429       -0.7721106250  MEMB      107             0.0000000000
     14295       113  POPC      H16Y           30.4562825785        7.8848750656       -0.5438304426  MEMB      107             0.0000000000
     14296       113  POPC      H16Z           28.6495632091        7.4219132198       -0.7803994016  MEMB      107             0.0000000000
     14297       114  POPS      N              25.9080344185       -9.5917295632      -19.3572284237  MEMB      108             0.0000000000
     14298       114  POPS      HN1            25.2006718120       -9.0247782001      -18.8475186021  MEMB      108             0.0000000000
     14299       114  POPS      HN2            26.6528727104       -8.9524990631      -19.7010308472  MEMB      108             0.0000000000
     14300       114  POPS      HN3            25.4201184016      -10.2024448144      -20.0432058023  MEMB      108             0.0000000000
     14301       114  POPS      C12            26.4921733686      -10.4900356513      -18.2984206129  MEMB      108             0.0000000000
     14302       114  POPS      H12A           25.8100603120      -10.8299297235      -17.5331795756  MEMB      108             0.0000000000
     14303       114  POPS      C13            27.6734406532       -9.6791765461      -17.6387580238  MEMB      108             0.0000000000
     14304       114  POPS      O13A           27.8752795618       -8.5099191326      -17.9805594566  MEMB      108             0.0000000000
     14305       114  POPS      O13B           28.3544274651      -10.2151982587      -16.7579386438  MEMB      108             0.0000000000
     14306       114  POPS      C11            27.1446689658      -11.7240021282      -18.9539891687  MEMB      108             0.0000000000
     14307       114  POPS      H11A           27.6748224308      -12.3141960622      -18.1762170934  MEMB      108             0.0000000000
     14308       114  POPS      H11B           27.7761813813      -11.3773986532      -19.7997899681  MEMB      108             0.0000000000
     14309       114  POPS      P              26.3725407467      -14.0842819904      -20.0625099542  MEMB      108             0.0000000000
     14310       114  POPS      O13            27.6895905529      -14.1686826542      -20.7598045218  MEMB      108             0.0000000000
     14311       114  POPS      O14            25.1895388784      -14.4091590948      -20.8904280723  MEMB      108             0.0000000000
     14312       114  POPS      O12            26.1784261797      -12.6065753040      -19.4974228348  MEMB      108             0.0000000000
     14313       114  POPS      O11            26.3716461043      -15.0537164349      -18.8029402649  MEMB      108             0.0000000000
     14314       114  POPS      C1             25.2456781281      -14.9317205651      -17.9369778149  MEMB      108             0.0000000000
     14315       114  POPS      HA             24.8042865094      -15.9418418352      -17.7985970196  MEMB      108             0.0000000000
     14316       114  POPS      HB             24.3685647645      -14.4100362035      -18.3761117233  MEMB      108             0.0000000000
     14317       114  POPS      C2             25.6273334110      -14.3114620776      -16.5741551189  MEMB      108             0.0000000000
     14318       114  POPS      HS             25.5875500139      -13.2015328569      -16.6023565423  MEMB      108             0.0000000000
     14319       114  POPS      O21            26.9090086795      -14.6952629774      -16.1369765530  MEMB      108             0.0000000000
     14320       114  POPS      C21            27.5637820008      -13.8824745652      -15.2540598550  MEMB      108             0.0000000000
     14321       114  POPS      O22            27.1777218659      -12.8587456909      -14.7929910846  MEMB      108             0.0000000000
     14322       114  POPS      C22            28.8762540735      -14.6598546739      -14.8165626902  MEMB      108             0.0000000000
     14323       114  POPS      H2R            29.7246080665      -14.4057011097      -15.4873997762  MEMB      108             0.0000000000
     14324       114  POPS      H2S            28.8166629307      -15.7230156059      -15.1335156253  MEMB      108             0.0000000000
     14325       114  POPS      C3             24.5395019797      -14.6823792626      -15.4459186406  MEMB      108             0.0000000000
     14326       114  POPS      HX             24.4352523374      -15.7757048573      -15.2783118417  MEMB      108             0.0000000000
     14327       114  POPS      HY             23.5432261773      -14.4076050602      -15.8536620897  MEMB      108             0.0000000000
     14328       114  POPS      O31            24.6966725560      -14.0071851159      -14.1980641108  MEMB      108             0.0000000000
     14329       114  POPS      C31            24.3842605370      -14.4566811941      -13.0448624712  MEMB      108             0.0000000000
     14330       114  POPS      O32            23.8521099480      -15.5252023269      -12.8336658676  MEMB      108             0.0000000000
     14331       114  POPS      C32            24.7150262540      -13.3359622662      -11.9993701867  MEMB      108             0.0000000000
     14332       114  POPS      H2X            25.4677580271      -12.6034956357      -12.3615974107  MEMB      108             0.0000000000
     14333       114  POPS      H2Y            25.0366142634      -13.7871949608      -11.0364104363  MEMB      108             0.0000000000
     14334       114  POPS      C23            29.2418127881      -14.6439990195      -13.2830266085  MEMB      108             0.0000000000
     14335       114  POPS      H3R            30.0300296960      -15.3984236853      -13.0735553047  MEMB      108             0.0000000000
     14336       114  POPS      H3S            28.2995055816      -14.8831355231      -12.7452611525  MEMB      108             0.0000000000
     14337       114  POPS      C24            29.8323191212      -13.2994947204      -12.6784630750  MEMB      108             0.0000000000
     14338       114  POPS      H4R            30.1799670023      -12.7114615128      -13.5546359720  MEMB      108             0.0000000000
     14339       114  POPS      H4S            30.7443400993      -13.5966389773      -12.1178879678  MEMB      108             0.0000000000
     14340       114  POPS      C25            28.8493993756      -12.4680689027      -11.8302894030  MEMB      108             0.0000000000
     14341       114  POPS      H5R            27.9191476031      -12.1807322851      -12.3654440676  MEMB      108             0.0000000000
     14342       114  POPS      H5S            29.2815738793      -11.4898796180      -11.5291380669  MEMB      108             0.0000000000
     14343       114  POPS      C26            28.4620938549      -13.1741441241      -10.4781877317  MEMB      108             0.0000000000
     14344       114  POPS      H6R            29.3883287027      -13.5479073440       -9.9916579952  MEMB      108             0.0000000000
     14345       114  POPS      H6S            27.8799580780      -14.0879067860      -10.7241071807  MEMB      108             0.0000000000
     14346       114  POPS      C27            27.6710307687      -12.3393335488       -9.4927112446  MEMB      108             0.0000000000
     14347       114  POPS      H7R            26.7666465882      -11.8051026452       -9.8546606173  MEMB      108             0.0000000000
     14348       114  POPS      H7S            28.3995248904      -11.6820311367       -8.9715868423  MEMB      108             0.0000000000
     14349       114  POPS      C28            27.3165116515      -13.1979205825       -8.2973438904  MEMB      108             0.0000000000
     14350       114  POPS      H8R            26.7410152142      -12.4962812727       -7.6563866563  MEMB      108             0.0000000000
     14351       114  POPS      H8S            28.2933760104      -13.3241305021       -7.7834099798  MEMB      108             0.0000000000
     14352       114  POPS      C29            26.3614463346      -14.3800410500       -8.4857294079  MEMB      108             0.0000000000
     14353       114  POPS      H91            25.3706485591      -14.0504313741       -8.8316735926  MEMB      108             0.0000000000
     14354       114  POPS      C210           26.5439029150      -15.7347312971       -8.1781274239  MEMB      108             0.0000000000
     14355       114  POPS      H101           25.7242103983      -16.4681459677       -8.1637235158  MEMB      108             0.0000000000
     14356       114  POPS      C211           27.7825189920      -16.2990987900       -7.6408641477  MEMB      108             0.0000000000
     14357       114  POPS      H11R           28.5839790299      -15.5439358493       -7.4935156891  MEMB      108             0.0000000000
     14358       114  POPS      H11S           28.4095306150      -17.0564154491       -8.1582122438  MEMB      108             0.0000000000
     14359       114  POPS      C212           27.4254917194      -17.0685051886       -6.3728905577  MEMB      108             0.0000000000
     14360       114  POPS      H12R           28.3718378126      -17.6052251766       -6.1477639209  MEMB      108             0.0000000000
     14361       114  POPS      H12S           26.6508971444      -17.8398886267       -6.5711131359  MEMB      108             0.0000000000
     14362       114  POPS      C213           27.0147925459      -16.2653436958       -5.0895292562  MEMB      108             0.0000000000
     14363       114  POPS      H13R           27.0334152317      -16.9172574769       -4.1900941012  MEMB      108             0.0000000000
     14364       114  POPS      H13S           26.0317101805      -15.7744518145       -5.2535276219  MEMB      108             0.0000000000
     14365       114  POPS      C214           28.0459995822      -15.2423982210       -4.6719975942  MEMB      108             0.0000000000
     14366       114  POPS      H14R           27.8196443698      -14.3655924995       -5.3156563194  MEMB      108             0.0000000000
     14367       114  POPS      H14S           29.0475757890      -15.7170502243       -4.7486248549  MEMB      108             0.0000000000
     14368       114  POPS      C215           27.8449367160      -14.7112063639       -3.2915716639  MEMB      108             0.0000000000
     14369       114  POPS      H15R           27.7313314198      -15.5327135974       -2.5522880080  MEMB      108             0.0000000000
     14370       114  POPS      H15S           26.9230048108      -14.0912392612       -3.2933796152  MEMB      108             0.0000000000
     14371       114  POPS      C216           29.0977417026      -13.8649809211       -2.8412204922  MEMB      108             0.0000000000
     14372       114  POPS      H16R           29.9303560670      -14.4677962422       -3.2627508589  MEMB      108             0.0000000000
     14373       114  POPS      H16S           29.1215253173      -13.8826378857       -1.7306156650  MEMB      108             0.0000000000
     14374       114  POPS      C217           29.1911548257      -12.3776411737       -3.4175216625  MEMB      108             0.0000000000
     14375       114  POPS      H17R           28.4137746638      -11.7827056181       -2.8921142968  MEMB      108             0.0000000000
     14376       114  POPS      H17S           28.9152763379      -12.2754237761       -4.4888591285  MEMB      108             0.0000000000
     14377       114  POPS      C218           30.5349880523      -11.7379330230       -3.2373651842  MEMB      108             0.0000000000
     14378       114  POPS      H18R           30.5118438292      -10.6332753860       -3.3536276838  MEMB      108             0.0000000000
     14379       114  POPS      H18S           31.2542531910      -12.1441137580       -3.9803299277  MEMB      108             0.0000000000
     14380       114  POPS      H18T           30.8211731011      -12.0877289643       -2.2224463832  MEMB      108             0.0000000000
     14381       114  POPS      C33            23.3124326667      -12.6942165325      -11.8154863863  MEMB      108             0.0000000000
     14382       114  POPS      H3X            23.2586295529      -12.3083349038      -10.7750435207  MEMB      108             0.0000000000
     14383       114  POPS      H3Y            22.4532823663      -13.3964924068      -11.8701683812  MEMB      108             0.0000000000
     14384       114  POPS      C34            23.0149050642      -11.4667864533      -12.7517793265  MEMB      108             0.0000000000
     14385       114  POPS      H4X            22.7455012074      -11.7577958144      -13.7895923159  MEMB      108             0.0000000000
     14386       114  POPS      H4Y            23.9348315879      -10.8685480227      -12.9254652907  MEMB      108             0.0000000000
     14387       114  POPS      C35            21.8986190983      -10.5934277668      -12.1989770307  MEMB      108             0.0000000000
     14388       114  POPS      H5X            20.9476268789      -11.1339628650      -12.0046662613  MEMB      108             0.0000000000
     14389       114  POPS      H5Y            21.7523375388       -9.9244758129      -13.0738633138  MEMB      108             0.0000000000
     14390       114  POPS      C36            22.2216154534       -9.7695052460      -10.9320520733  MEMB      108             0.0000000000
     14391       114  POPS      H6X            21.8209822041      -10.4134226462      -10.1201514452  MEMB      108             0.0000000000
     14392       114  POPS      H6Y            21.5910574403       -8.8569061202      -10.9943455869  MEMB      108             0.0000000000
     14393       114  POPS      C37            23.7239559863       -9.3944566989      -10.6544820333  MEMB      108             0.0000000000
     14394       114  POPS      H7X            24.2500792185       -8.9151558121      -11.5075859985  MEMB      108             0.0000000000
     14395       114  POPS      H7Y            24.2383313409      -10.3233460020      -10.3275207702  MEMB      108             0.0000000000
     14396       114  POPS      C38            23.7828099815       -8.5412161157       -9.4236666713  MEMB      108             0.0000000000
     14397       114  POPS      H8X            23.3490365170       -7.5339324373       -9.6012641046  MEMB      108             0.0000000000
     14398       114  POPS      H8Y            24.8189982319       -8.2527161620       -9.1454534146  MEMB      108             0.0000000000
     14399       114  POPS      C39            23.3098925284       -9.3136916520       -8.1851154240  MEMB      108             0.0000000000
     14400       114  POPS      H9X            24.0672642676      -10.1080605343       -8.0128158446  MEMB      108             0.0000000000
     14401       114  POPS      H9Y            22.2799826843       -9.7264472799       -8.2420321866  MEMB      108             0.0000000000
     14402       114  POPS      C310           23.5454174544       -8.5188956393       -6.9021433882  MEMB      108             0.0000000000
     14403       114  POPS      H10X           22.6661918111       -7.8772464053       -6.6795012898  MEMB      108             0.0000000000
     14404       114  POPS      H10Y           24.3535834778       -7.7961023307       -7.1445447497  MEMB      108             0.0000000000
     14405       114  POPS      C311           23.7812389216       -9.4743555234       -5.7212944941  MEMB      108             0.0000000000
     14406       114  POPS      H11X           24.4322743508      -10.3102256880       -6.0556528360  MEMB      108             0.0000000000
     14407       114  POPS      H11Y           22.7918653685       -9.8739373796       -5.4117866692  MEMB      108             0.0000000000
     14408       114  POPS      C312           24.6017961981       -8.7568864362       -4.5757691017  MEMB      108             0.0000000000
     14409       114  POPS      H12X           24.2243348017       -7.7120885519       -4.5913089690  MEMB      108             0.0000000000
     14410       114  POPS      H12Y           25.6013549818       -8.7004025164       -5.0574461499  MEMB      108             0.0000000000
     14411       114  POPS      C313           24.5931664293       -9.4065843244       -3.2259350406  MEMB      108             0.0000000000
     14412       114  POPS      H13X           23.5766194005       -9.4545099343       -2.7802266577  MEMB      108             0.0000000000
     14413       114  POPS      H13Y           25.1197303649       -8.8177843301       -2.4446743880  MEMB      108             0.0000000000
     14414       114  POPS      C314           25.1126277818      -10.8293842443       -3.2418227350  MEMB      108             0.0000000000
     14415       114  POPS      H14X           26.0309690276      -10.8726471787       -3.8656003780  MEMB      108             0.0000000000
     14416       114  POPS      H14Y           24.3652598717      -11.4827963679       -3.7406364660  MEMB      108             0.0000000000
     14417       114  POPS      C315           25.4275180346      -11.4203216280       -1.8225278969  MEMB      108             0.0000000000
     14418       114  POPS      H15X           25.9858989510      -10.5647921527       -1.3859490073  MEMB      108             0.0000000000
     14419       114  POPS      H15Y           26.0203402886      -12.3520393395       -1.9441207099  MEMB      108             0.0000000000
     14420       114  POPS      C316           24.2036765842      -11.6857458689       -0.8945202058  MEMB      108             0.0000000000
     14421       114  POPS      H16X           23.5293996150      -10.8049445661       -0.8323861429  MEMB      108             0.0000000000
     14422       114  POPS      H16Y           24.7320288177      -11.9674689333        0.0413203470  MEMB      108             0.0000000000
     14423       114  POPS      H16Z           23.6299097368      -12.5715445161       -1.2416108851  MEMB      108             0.0000000000
     14424       115  POPC      N             -30.6506544975        0.3391973580      -20.9087206681  MEMB      109             0.0000000000
     14425       115  POPC      C12           -30.4328950388        1.3804435224      -19.8135848344  MEMB      109             0.0000000000
     14426       115  POPC      H12A          -30.9156786986        2.3007700792      -20.1073856599  MEMB      109             0.0000000000
     14427       115  POPC      H12B          -29.3784005838        1.6131929129      -19.7971751463  MEMB      109             0.0000000000
     14428       115  POPC      C13           -32.0750897769        0.3167596923      -21.2266177777  MEMB      109             0.0000000000
     14429       115  POPC      H13A          -32.3983398666        1.2128668908      -21.7354410780  MEMB      109             0.0000000000
     14430       115  POPC      H13B          -32.3012957285       -0.4745617853      -21.9259326516  MEMB      109             0.0000000000
     14431       115  POPC      H13C          -32.6489853846        0.1900255392      -20.3205370297  MEMB      109             0.0000000000
     14432       115  POPC      C14           -29.9816464681        0.6815168257      -22.2685891179  MEMB      109             0.0000000000
     14433       115  POPC      H14A          -28.9081045434        0.7803056638      -22.3329982090  MEMB      109             0.0000000000
     14434       115  POPC      H14B          -30.3259986568        0.0984192441      -23.1099089613  MEMB      109             0.0000000000
     14435       115  POPC      H14C          -30.2644162395        1.7080839437      -22.4491469749  MEMB      109             0.0000000000
     14436       115  POPC      C15           -30.2383746718       -1.0528848342      -20.5795763398  MEMB      109             0.0000000000
     14437       115  POPC      H15A          -30.9293274154       -1.4912730561      -19.8747360798  MEMB      109             0.0000000000
     14438       115  POPC      H15B          -29.1965704003       -1.1254773472      -20.3043053656  MEMB      109             0.0000000000
     14439       115  POPC      H15C          -30.2923265074       -1.6579260323      -21.4725571578  MEMB      109             0.0000000000
     14440       115  POPC      C11           -30.9178805875        0.9548311216      -18.3571926819  MEMB      109             0.0000000000
     14441       115  POPC      H11A          -31.8199040708        0.3180171614      -18.4802481780  MEMB      109             0.0000000000
     14442       115  POPC      H11B          -31.2883214966        1.8611594203      -17.8321560308  MEMB      109             0.0000000000
     14443       115  POPC      P             -28.6264614595        0.8262779739      -17.1507892931  MEMB      109             0.0000000000
     14444       115  POPC      O13           -27.7094873921        0.6169202629      -18.3209946184  MEMB      109             0.0000000000
     14445       115  POPC      O14           -28.2605564304        0.2466467502      -15.8043711195  MEMB      109             0.0000000000
     14446       115  POPC      O12           -30.0313197442        0.1368775922      -17.5890347395  MEMB      109             0.0000000000
     14447       115  POPC      O11           -28.9904673268        2.3358572853      -16.9805288125  MEMB      109             0.0000000000
     14448       115  POPC      C1            -28.0463457310        3.4200248259      -16.9192742131  MEMB      109             0.0000000000
     14449       115  POPC      HA            -28.2118704938        4.1429582220      -17.7464922537  MEMB      109             0.0000000000
     14450       115  POPC      HB            -26.9921663311        3.1030621229      -17.0694789339  MEMB      109             0.0000000000
     14451       115  POPC      C2            -28.2348913208        4.1293029584      -15.5330501982  MEMB      109             0.0000000000
     14452       115  POPC      HS            -27.6081164816        5.0381471266      -15.4086459110  MEMB      109             0.0000000000
     14453       115  POPC      O21           -27.9277377495        3.2027911023      -14.5204092821  MEMB      109             0.0000000000
     14454       115  POPC      C21           -26.6659521163        2.9069738530      -14.1883925250  MEMB      109             0.0000000000
     14455       115  POPC      O22           -25.6689544401        3.3837402428      -14.7136444753  MEMB      109             0.0000000000
     14456       115  POPC      C22           -26.6199637607        1.7503177932      -13.1983966016  MEMB      109             0.0000000000
     14457       115  POPC      H2R           -25.7987612502        1.9315874065      -12.4723875477  MEMB      109             0.0000000000
     14458       115  POPC      H2S           -26.2502443843        0.9046246402      -13.8168071397  MEMB      109             0.0000000000
     14459       115  POPC      C3            -29.6885729603        4.6652100338      -15.3161801008  MEMB      109             0.0000000000
     14460       115  POPC      HX            -29.7566694164        5.4000308471      -16.1466752676  MEMB      109             0.0000000000
     14461       115  POPC      HY            -29.8066845843        5.2772596893      -14.3965249510  MEMB      109             0.0000000000
     14462       115  POPC      O31           -30.7183546826        3.6720237287      -15.5337313277  MEMB      109             0.0000000000
     14463       115  POPC      C31           -31.3643224287        3.2121169337      -14.4491106734  MEMB      109             0.0000000000
     14464       115  POPC      O32           -31.1440953111        3.5474974496      -13.3019179202  MEMB      109             0.0000000000
     14465       115  POPC      C32           -32.5589721307        2.2851622752      -14.6970095826  MEMB      109             0.0000000000
     14466       115  POPC      H2X           -33.0523894798        2.4556431212      -15.6777217428  MEMB      109             0.0000000000
     14467       115  POPC      H2Y           -33.1504616975        2.4993032117      -13.7812558136  MEMB      109             0.0000000000
     14468       115  POPC      C23           -27.9830197898        1.5065999859      -12.4797243817  MEMB      109             0.0000000000
     14469       115  POPC      H3R           -27.7933633536        0.5934297243      -11.8760092757  MEMB      109             0.0000000000
     14470       115  POPC      H3S           -28.7499101081        1.3919678975      -13.2753745907  MEMB      109             0.0000000000
     14471       115  POPC      C24           -28.5274605036        2.5783995911      -11.5026959398  MEMB      109             0.0000000000
     14472       115  POPC      H4R           -29.4548223640        2.2499534004      -10.9865139897  MEMB      109             0.0000000000
     14473       115  POPC      H4S           -28.7370693126        3.4855063870      -12.1089485739  MEMB      109             0.0000000000
     14474       115  POPC      C25           -27.4793704780        2.9355582166      -10.4891296065  MEMB      109             0.0000000000
     14475       115  POPC      H5R           -26.7031438012        3.6162782679      -10.8995115834  MEMB      109             0.0000000000
     14476       115  POPC      H5S           -26.9454427163        2.0424166104      -10.0998483831  MEMB      109             0.0000000000
     14477       115  POPC      C26           -28.0255031253        3.7861060095       -9.2629613364  MEMB      109             0.0000000000
     14478       115  POPC      H6R           -27.1217461995        4.0496290102       -8.6729623341  MEMB      109             0.0000000000
     14479       115  POPC      H6S           -28.4880980418        3.0477935013       -8.5735985861  MEMB      109             0.0000000000
     14480       115  POPC      C27           -28.7813792804        5.0501230976       -9.5489810405  MEMB      109             0.0000000000
     14481       115  POPC      H7R           -29.8423155138        4.7211767635       -9.5259637657  MEMB      109             0.0000000000
     14482       115  POPC      H7S           -28.4981730613        5.3727358627      -10.5736935004  MEMB      109             0.0000000000
     14483       115  POPC      C28           -28.6004858233        6.2022860621       -8.5488416615  MEMB      109             0.0000000000
     14484       115  POPC      H8R           -29.0504502816        7.0357057285       -9.1295872519  MEMB      109             0.0000000000
     14485       115  POPC      H8S           -27.5151141183        6.4394268524       -8.5561427445  MEMB      109             0.0000000000
     14486       115  POPC      C29           -29.3785752280        6.0713108233       -7.1942623250  MEMB      109             0.0000000000
     14487       115  POPC      H91           -30.4275227616        6.4020262411       -7.2125965154  MEMB      109             0.0000000000
     14488       115  POPC      C210          -28.7608687739        5.6061635637       -6.0522799575  MEMB      109             0.0000000000
     14489       115  POPC      H101          -29.1907872661        5.5698550320       -5.0404250205  MEMB      109             0.0000000000
     14490       115  POPC      C211          -27.2881232759        5.2226742075       -6.0458025268  MEMB      109             0.0000000000
     14491       115  POPC      H11R          -26.8686949004        5.2079146360       -7.0744831130  MEMB      109             0.0000000000
     14492       115  POPC      H11S          -27.3666264888        4.1326252964       -5.8459233314  MEMB      109             0.0000000000
     14493       115  POPC      C212          -26.3078819525        5.8192481846       -5.0196798914  MEMB      109             0.0000000000
     14494       115  POPC      H12R          -26.1098804378        6.8649729953       -5.3383912115  MEMB      109             0.0000000000
     14495       115  POPC      H12S          -25.3196544074        5.3262545099       -5.1408596275  MEMB      109             0.0000000000
     14496       115  POPC      C213          -26.7608374347        5.7501299170       -3.5433475681  MEMB      109             0.0000000000
     14497       115  POPC      H13R          -26.6748206349        4.6980781990       -3.1967798661  MEMB      109             0.0000000000
     14498       115  POPC      H13S          -27.8516846984        5.9580942870       -3.5098211972  MEMB      109             0.0000000000
     14499       115  POPC      C214          -25.9296405988        6.5738226039       -2.5481867689  MEMB      109             0.0000000000
     14500       115  POPC      H14R          -26.1937303255        7.6304340585       -2.7676184054  MEMB      109             0.0000000000
     14501       115  POPC      H14S          -24.8431026672        6.3455048557       -2.5078466334  MEMB      109             0.0000000000
     14502       115  POPC      C215          -26.3352396252        6.2650551160       -1.0899263329  MEMB      109             0.0000000000
     14503       115  POPC      H15R          -27.3520188834        6.5644954548       -0.7570351173  MEMB      109             0.0000000000
     14504       115  POPC      H15S          -25.6753124564        6.7458453633       -0.3364949771  MEMB      109             0.0000000000
     14505       115  POPC      C216          -26.0913380491        4.7312452560       -0.6521201713  MEMB      109             0.0000000000
     14506       115  POPC      H16R          -25.1239109031        4.3582509955       -1.0512205358  MEMB      109             0.0000000000
     14507       115  POPC      H16S          -26.7746588500        4.1087186912       -1.2684431714  MEMB      109             0.0000000000
     14508       115  POPC      C217          -26.1454148559        4.3904159042        0.8497225749  MEMB      109             0.0000000000
     14509       115  POPC      H17R          -25.4941481714        5.1732158284        1.2940156557  MEMB      109             0.0000000000
     14510       115  POPC      H17S          -25.7724116146        3.3679329974        1.0726972962  MEMB      109             0.0000000000
     14511       115  POPC      C218          -27.4539925264        4.4908566136        1.6158706329  MEMB      109             0.0000000000
     14512       115  POPC      H18R          -28.3030547344        4.2685798548        0.9346907199  MEMB      109             0.0000000000
     14513       115  POPC      H18S          -27.6842525333        5.5008155494        2.0174731678  MEMB      109             0.0000000000
     14514       115  POPC      H18T          -27.4952957012        3.7065131223        2.4016316603  MEMB      109             0.0000000000
     14515       115  POPC      C33           -32.0956562433        0.7779821723      -14.6005482645  MEMB      109             0.0000000000
     14516       115  POPC      H3X           -31.0228679243        0.7175589978      -14.8830285048  MEMB      109             0.0000000000
     14517       115  POPC      H3Y           -32.7000715671        0.2260953531      -15.3518301788  MEMB      109             0.0000000000
     14518       115  POPC      C34           -32.2111446362        0.1827071566      -13.1431100772  MEMB      109             0.0000000000
     14519       115  POPC      H4X           -33.3144547303        0.1320243593      -13.0228637740  MEMB      109             0.0000000000
     14520       115  POPC      H4Y           -31.6717756489        0.8692602847      -12.4560529661  MEMB      109             0.0000000000
     14521       115  POPC      C35           -31.5480317773       -1.1837230144      -12.9873577368  MEMB      109             0.0000000000
     14522       115  POPC      H5X           -30.4374649542       -1.1938443221      -13.0166829478  MEMB      109             0.0000000000
     14523       115  POPC      H5Y           -31.7593210982       -1.6239296604      -13.9853036720  MEMB      109             0.0000000000
     14524       115  POPC      C36           -32.0251324352       -1.9686241407      -11.7287073735  MEMB      109             0.0000000000
     14525       115  POPC      H6X           -31.3858072218       -2.8691681264      -11.6078576158  MEMB      109             0.0000000000
     14526       115  POPC      H6Y           -33.0324049261       -2.3904382083      -11.9331483116  MEMB      109             0.0000000000
     14527       115  POPC      C37           -32.3604677358       -1.1706467719      -10.4539685744  MEMB      109             0.0000000000
     14528       115  POPC      H7X           -32.8709039648       -1.8318368908       -9.7214362740  MEMB      109             0.0000000000
     14529       115  POPC      H7Y           -33.1255304057       -0.4174106718      -10.7396878829  MEMB      109             0.0000000000
     14530       115  POPC      C38           -31.1838981175       -0.4751098651       -9.7674238538  MEMB      109             0.0000000000
     14531       115  POPC      H8X           -30.8282543224        0.2574727705      -10.5231760807  MEMB      109             0.0000000000
     14532       115  POPC      H8Y           -30.4851150298       -1.3273479492       -9.6270190889  MEMB      109             0.0000000000
     14533       115  POPC      C39           -31.4685922832        0.3003461676       -8.4556664229  MEMB      109             0.0000000000
     14534       115  POPC      H9X           -32.1345721629        1.1432937368       -8.7389177692  MEMB      109             0.0000000000
     14535       115  POPC      H9Y           -30.4781314282        0.6695887119       -8.1136601826  MEMB      109             0.0000000000
     14536       115  POPC      C310          -32.1466731057       -0.5483883707       -7.3750048161  MEMB      109             0.0000000000
     14537       115  POPC      H10X          -31.5040250118       -1.4544111772       -7.3538604708  MEMB      109             0.0000000000
     14538       115  POPC      H10Y          -33.1914171954       -0.7277952985       -7.7076355775  MEMB      109             0.0000000000
     14539       115  POPC      C311          -32.2790747057       -0.0295457104       -5.9514788144  MEMB      109             0.0000000000
     14540       115  POPC      H11X          -32.5857823400       -0.9591737095       -5.4260808375  MEMB      109             0.0000000000
     14541       115  POPC      H11Y          -33.0369277887        0.7820669536       -5.9159241443  MEMB      109             0.0000000000
     14542       115  POPC      C312          -30.8914582309        0.2403139971       -5.3317398297  MEMB      109             0.0000000000
     14543       115  POPC      H12X          -30.4434395288        1.0014452577       -6.0057420959  MEMB      109             0.0000000000
     14544       115  POPC      H12Y          -30.2744980120       -0.6622990162       -5.5291493814  MEMB      109             0.0000000000
     14545       115  POPC      C313          -30.7534372292        0.6534742545       -3.8193994255  MEMB      109             0.0000000000
     14546       115  POPC      H13X          -30.9595650568       -0.1722961255       -3.1053022892  MEMB      109             0.0000000000
     14547       115  POPC      H13Y          -31.5175524207        1.3943957315       -3.5008334391  MEMB      109             0.0000000000
     14548       115  POPC      C314          -29.4013595656        1.2530399279       -3.4110228576  MEMB      109             0.0000000000
     14549       115  POPC      H14X          -29.0215504518        1.8181989596       -4.2888964294  MEMB      109             0.0000000000
     14550       115  POPC      H14Y          -28.7171033830        0.3849038398       -3.2994248163  MEMB      109             0.0000000000
     14551       115  POPC      C315          -29.4058554512        2.3005503844       -2.3124447851  MEMB      109             0.0000000000
     14552       115  POPC      H15X          -30.2107513292        3.0618989998       -2.3949785474  MEMB      109             0.0000000000
     14553       115  POPC      H15Y          -28.5265389816        2.9670794791       -2.4423004832  MEMB      109             0.0000000000
     14554       115  POPC      C316          -29.6016477892        1.7229580864       -0.9962925509  MEMB      109             0.0000000000
     14555       115  POPC      H16X          -28.6480412039        1.4708965409       -0.4849993775  MEMB      109             0.0000000000
     14556       115  POPC      H16Y          -30.1050397211        0.7337214603       -1.0445433162  MEMB      109             0.0000000000
     14557       115  POPC      H16Z          -30.1040796869        2.4446500409       -0.3172895383  MEMB      109             0.0000000000
     14558       116  POPC      N              -5.7924558734       27.7781778786      -19.1519990469  MEMB      110             0.0000000000
     14559       116  POPC      C12            -5.0544174251       28.6310930901      -18.1848658703  MEMB      110             0.0000000000
     14560       116  POPC      H12A           -4.5838200926       28.1277222737      -17.3532674552  MEMB      110             0.0000000000
     14561       116  POPC      H12B           -5.8059378466       29.2581286818      -17.7283099761  MEMB      110             0.0000000000
     14562       116  POPC      C13            -6.7682669119       26.8852141974      -18.4052452748  MEMB      110             0.0000000000
     14563       116  POPC      H13A           -7.0365545065       27.3433484566      -17.4647482108  MEMB      110             0.0000000000
     14564       116  POPC      H13B           -7.6398023237       26.6910310501      -19.0127967941  MEMB      110             0.0000000000
     14565       116  POPC      H13C           -6.3091241060       25.9592173808      -18.0920070487  MEMB      110             0.0000000000
     14566       116  POPC      C14            -6.6068968552       28.6544287306      -20.0471524601  MEMB      110             0.0000000000
     14567       116  POPC      H14A           -6.8350363884       28.1183785888      -20.9565493436  MEMB      110             0.0000000000
     14568       116  POPC      H14B           -7.4960231434       29.0282303910      -19.5612236017  MEMB      110             0.0000000000
     14569       116  POPC      H14C           -5.9764095654       29.4703947893      -20.3682212715  MEMB      110             0.0000000000
     14570       116  POPC      C15            -4.9261493242       26.8971159518      -19.9547805620  MEMB      110             0.0000000000
     14571       116  POPC      H15A           -4.2441105114       27.5013304702      -20.5345631681  MEMB      110             0.0000000000
     14572       116  POPC      H15B           -5.4007850942       26.2502787359      -20.6777758586  MEMB      110             0.0000000000
     14573       116  POPC      H15C           -4.4432624537       26.1710920225      -19.3175135096  MEMB      110             0.0000000000
     14574       116  POPC      C11            -3.9447457683       29.6433070869      -18.6710906099  MEMB      110             0.0000000000
     14575       116  POPC      H11A           -3.0569185502       29.1327504613      -19.1016899044  MEMB      110             0.0000000000
     14576       116  POPC      H11B           -3.5095970474       30.1045557899      -17.7588317028  MEMB      110             0.0000000000
     14577       116  POPC      P              -4.9823611028       31.9586281015      -18.9328200582  MEMB      110             0.0000000000
     14578       116  POPC      O13            -5.9624537839       32.4800724417      -19.8365901130  MEMB      110             0.0000000000
     14579       116  POPC      O14            -3.8889855265       32.9284784916      -18.6615031434  MEMB      110             0.0000000000
     14580       116  POPC      O12            -4.3317206423       30.6348220085      -19.5984347418  MEMB      110             0.0000000000
     14581       116  POPC      O11            -5.7286940660       31.5004580155      -17.5555181247  MEMB      110             0.0000000000
     14582       116  POPC      C1             -7.2289126474       31.4630592221      -17.4666099518  MEMB      110             0.0000000000
     14583       116  POPC      HA             -7.6025630756       30.7068428928      -18.1896888782  MEMB      110             0.0000000000
     14584       116  POPC      HB             -7.7510508516       32.3963178681      -17.7678095537  MEMB      110             0.0000000000
     14585       116  POPC      C2             -7.7171535030       31.2875083531      -15.9695507028  MEMB      110             0.0000000000
     14586       116  POPC      HS             -8.7666128239       31.5861599295      -15.7603533973  MEMB      110             0.0000000000
     14587       116  POPC      O21            -6.8227230798       32.0492927538      -15.1200757700  MEMB      110             0.0000000000
     14588       116  POPC      C21            -6.8775645001       33.3489909596      -15.1670805962  MEMB      110             0.0000000000
     14589       116  POPC      O22            -7.6687053570       34.0270734793      -15.7512580431  MEMB      110             0.0000000000
     14590       116  POPC      C22            -5.7269346970       34.0953407622      -14.3468600093  MEMB      110             0.0000000000
     14591       116  POPC      H2R            -5.4221806165       34.8647806300      -15.0880806447  MEMB      110             0.0000000000
     14592       116  POPC      H2S            -5.0018776480       33.3177696087      -14.0243747552  MEMB      110             0.0000000000
     14593       116  POPC      C3             -7.7074838422       29.8114989608      -15.5824760497  MEMB      110             0.0000000000
     14594       116  POPC      HX             -7.0666725012       29.2540252298      -16.2986499380  MEMB      110             0.0000000000
     14595       116  POPC      HY             -8.7338567637       29.3911800835      -15.6473715398  MEMB      110             0.0000000000
     14596       116  POPC      O31            -7.1724470175       29.6346858193      -14.2872284152  MEMB      110             0.0000000000
     14597       116  POPC      C31            -5.9509181130       29.1343724784      -14.1794254176  MEMB      110             0.0000000000
     14598       116  POPC      O32            -5.2287745666       28.7805820517      -15.1205870582  MEMB      110             0.0000000000
     14599       116  POPC      C32            -5.6918767371       29.1637621908      -12.6679026823  MEMB      110             0.0000000000
     14600       116  POPC      H2X            -6.6020197112       28.7040807129      -12.2267073272  MEMB      110             0.0000000000
     14601       116  POPC      H2Y            -5.7362059857       30.2141525815      -12.3086869876  MEMB      110             0.0000000000
     14602       116  POPC      C23            -6.5026884689       34.8213445615      -13.2832139205  MEMB      110             0.0000000000
     14603       116  POPC      H3R            -7.2497007083       35.4543533195      -13.8081834965  MEMB      110             0.0000000000
     14604       116  POPC      H3S            -5.7640394897       35.4265309595      -12.7153514452  MEMB      110             0.0000000000
     14605       116  POPC      C24            -7.0558970967       33.8089061263      -12.2252214880  MEMB      110             0.0000000000
     14606       116  POPC      H4R            -6.2285690775       33.2005294662      -11.8012795142  MEMB      110             0.0000000000
     14607       116  POPC      H4S            -7.8029103427       33.0857909034      -12.6168805733  MEMB      110             0.0000000000
     14608       116  POPC      C25            -7.9012361892       34.4908392020      -11.0729971343  MEMB      110             0.0000000000
     14609       116  POPC      H5R            -8.8237263942       34.8450297633      -11.5808178454  MEMB      110             0.0000000000
     14610       116  POPC      H5S            -7.2528068354       35.3509193130      -10.8007438546  MEMB      110             0.0000000000
     14611       116  POPC      C26            -8.3126295950       33.5619397240       -9.9098275911  MEMB      110             0.0000000000
     14612       116  POPC      H6R            -8.4260051280       32.5237517550      -10.2888160728  MEMB      110             0.0000000000
     14613       116  POPC      H6S            -9.3272144591       33.7636712480       -9.5045591062  MEMB      110             0.0000000000
     14614       116  POPC      C27            -7.2289655263       33.6448396528       -8.8238892250  MEMB      110             0.0000000000
     14615       116  POPC      H7R            -7.4478865057       34.5786102384       -8.2631154972  MEMB      110             0.0000000000
     14616       116  POPC      H7S            -6.2070092203       33.7999029266       -9.2311748589  MEMB      110             0.0000000000
     14617       116  POPC      C28            -7.4349693698       32.3412688368       -7.8802446640  MEMB      110             0.0000000000
     14618       116  POPC      H8R            -8.5052462767       32.3508873500       -7.5823584786  MEMB      110             0.0000000000
     14619       116  POPC      H8S            -6.7851481480       32.5451424579       -7.0024695010  MEMB      110             0.0000000000
     14620       116  POPC      C29            -7.1198468958       31.0396929248       -8.5529907910  MEMB      110             0.0000000000
     14621       116  POPC      H91            -6.7708838959       31.1200203804       -9.5930735080  MEMB      110             0.0000000000
     14622       116  POPC      C210           -7.3121491946       29.8174376289       -8.0267938980  MEMB      110             0.0000000000
     14623       116  POPC      H101           -7.1053347108       28.9265926423       -8.6380412666  MEMB      110             0.0000000000
     14624       116  POPC      C211           -7.8532009214       29.6158280674       -6.6153324881  MEMB      110             0.0000000000
     14625       116  POPC      H11R           -8.9530857598       29.5546227455       -6.7596534158  MEMB      110             0.0000000000
     14626       116  POPC      H11S           -7.6073337037       30.4790516109       -5.9605687710  MEMB      110             0.0000000000
     14627       116  POPC      C212           -7.2268132481       28.4353668893       -5.8804747207  MEMB      110             0.0000000000
     14628       116  POPC      H12R           -7.5494899482       27.5705784970       -6.4988126136  MEMB      110             0.0000000000
     14629       116  POPC      H12S           -7.7933014165       28.2690000915       -4.9393400597  MEMB      110             0.0000000000
     14630       116  POPC      C213           -5.6877027689       28.4137576814       -5.7450971885  MEMB      110             0.0000000000
     14631       116  POPC      H13R           -5.5245847235       29.1424052911       -4.9224263842  MEMB      110             0.0000000000
     14632       116  POPC      H13S           -5.2290371996       28.6855328838       -6.7198194787  MEMB      110             0.0000000000
     14633       116  POPC      C214           -5.2247226331       26.9745723849       -5.2582968250  MEMB      110             0.0000000000
     14634       116  POPC      H14R           -5.3738984102       26.2325751149       -6.0716283798  MEMB      110             0.0000000000
     14635       116  POPC      H14S           -5.7941588956       26.6723635470       -4.3534584325  MEMB      110             0.0000000000
     14636       116  POPC      C215           -3.7303892619       26.8656803921       -5.0725022681  MEMB      110             0.0000000000
     14637       116  POPC      H15R           -3.2609038546       26.8185312920       -6.0783263568  MEMB      110             0.0000000000
     14638       116  POPC      H15S           -3.5054265551       25.8834665761       -4.6045612242  MEMB      110             0.0000000000
     14639       116  POPC      C216           -3.0619667683       27.9959850201       -4.1768378569  MEMB      110             0.0000000000
     14640       116  POPC      H16R           -3.5626938109       28.9765805136       -4.3252482455  MEMB      110             0.0000000000
     14641       116  POPC      H16S           -1.9982464767       28.0355750199       -4.4950402784  MEMB      110             0.0000000000
     14642       116  POPC      C217           -3.0572299981       27.4460459918       -2.6810890203  MEMB      110             0.0000000000
     14643       116  POPC      H17R           -2.3926912965       26.5557130235       -2.6851749492  MEMB      110             0.0000000000
     14644       116  POPC      H17S           -4.0713757825       27.1305075073       -2.3551064042  MEMB      110             0.0000000000
     14645       116  POPC      C218           -2.6119879882       28.5441261747       -1.7626394125  MEMB      110             0.0000000000
     14646       116  POPC      H18R           -1.5289041165       28.7212228412       -1.9355211481  MEMB      110             0.0000000000
     14647       116  POPC      H18S           -2.8668579569       28.2752689165       -0.7152245322  MEMB      110             0.0000000000
     14648       116  POPC      H18T           -3.1064430542       29.4720452801       -2.1215291798  MEMB      110             0.0000000000
     14649       116  POPC      C33            -4.3380962497       28.5273419957      -12.2906891544  MEMB      110             0.0000000000
     14650       116  POPC      H3X            -3.5571438597       29.1077877002      -12.8268953331  MEMB      110             0.0000000000
     14651       116  POPC      H3Y            -4.1343494824       27.4656197146      -12.5467244705  MEMB      110             0.0000000000
     14652       116  POPC      C34            -4.1686889083       28.5325639510      -10.7665690035  MEMB      110             0.0000000000
     14653       116  POPC      H4X            -3.4361978876       27.7442639562      -10.4902338337  MEMB      110             0.0000000000
     14654       116  POPC      H4Y            -5.0807712997       28.3600805828      -10.1560973215  MEMB      110             0.0000000000
     14655       116  POPC      C35            -3.5865047739       29.8693216526      -10.2529691410  MEMB      110             0.0000000000
     14656       116  POPC      H5X            -4.2712198628       30.6961316971      -10.5391006978  MEMB      110             0.0000000000
     14657       116  POPC      H5Y            -2.5954700088       29.8698273426      -10.7551343357  MEMB      110             0.0000000000
     14658       116  POPC      C36            -3.5141356797       29.9918543526       -8.6871645773  MEMB      110             0.0000000000
     14659       116  POPC      H6X            -2.8005897893       29.2792470388       -8.2209418129  MEMB      110             0.0000000000
     14660       116  POPC      H6Y            -4.4901620323       29.6427186128       -8.2874173191  MEMB      110             0.0000000000
     14661       116  POPC      C37            -3.4849090572       31.4593247525       -8.1463362422  MEMB      110             0.0000000000
     14662       116  POPC      H7X            -4.3980199946       31.9986990788       -8.4774333225  MEMB      110             0.0000000000
     14663       116  POPC      H7Y            -2.5982422395       31.8894762696       -8.6592821688  MEMB      110             0.0000000000
     14664       116  POPC      C38            -3.2090434518       31.7305968352       -6.5921521148  MEMB      110             0.0000000000
     14665       116  POPC      H8X            -2.1090200600       31.7060739291       -6.4383086234  MEMB      110             0.0000000000
     14666       116  POPC      H8Y            -3.7737927441       30.9657870311       -6.0173085809  MEMB      110             0.0000000000
     14667       116  POPC      C39            -3.6312915284       33.1965975409       -6.3562215464  MEMB      110             0.0000000000
     14668       116  POPC      H9X            -4.7331142392       33.1369086354       -6.4856240441  MEMB      110             0.0000000000
     14669       116  POPC      H9Y            -3.2730042577       33.8472745245       -7.1824003202  MEMB      110             0.0000000000
     14670       116  POPC      C310           -3.3965223132       33.7539680002       -4.9068385881  MEMB      110             0.0000000000
     14671       116  POPC      H10X           -3.4056477532       34.8608349115       -5.0021461645  MEMB      110             0.0000000000
     14672       116  POPC      H10Y           -2.4524475526       33.4705918683       -4.3942550583  MEMB      110             0.0000000000
     14673       116  POPC      C311           -4.6267917023       33.4658571470       -3.8935296720  MEMB      110             0.0000000000
     14674       116  POPC      H11X           -5.5356220022       33.7153575095       -4.4818309558  MEMB      110             0.0000000000
     14675       116  POPC      H11Y           -4.6101053735       34.1307660421       -3.0036200812  MEMB      110             0.0000000000
     14676       116  POPC      C312           -4.7198505925       31.9962215670       -3.5298376093  MEMB      110             0.0000000000
     14677       116  POPC      H12X           -3.7795299252       31.7443147880       -2.9944302734  MEMB      110             0.0000000000
     14678       116  POPC      H12Y           -4.8159111908       31.3524735906       -4.4302160222  MEMB      110             0.0000000000
     14679       116  POPC      C313           -5.9915725537       31.5957794838       -2.6992031495  MEMB      110             0.0000000000
     14680       116  POPC      H13X           -5.8940994284       31.8176680876       -1.6149596104  MEMB      110             0.0000000000
     14681       116  POPC      H13Y           -6.0707832539       30.4962009120       -2.8369474878  MEMB      110             0.0000000000
     14682       116  POPC      C314           -7.2711191726       32.3121236217       -3.1094606543  MEMB      110             0.0000000000
     14683       116  POPC      H14X           -7.2546803608       32.0500125327       -4.1889730749  MEMB      110             0.0000000000
     14684       116  POPC      H14Y           -7.1279698793       33.3966658060       -2.9155589230  MEMB      110             0.0000000000
     14685       116  POPC      C315           -8.5535217210       31.9414223367       -2.3521066197  MEMB      110             0.0000000000
     14686       116  POPC      H15X           -9.3542108461       32.5268391703       -2.8526106853  MEMB      110             0.0000000000
     14687       116  POPC      H15Y           -8.4815187060       32.2405874256       -1.2845681847  MEMB      110             0.0000000000
     14688       116  POPC      C316           -8.7763509472       30.3277651633       -2.3901074437  MEMB      110             0.0000000000
     14689       116  POPC      H16X           -8.7166913296       30.0165407542       -3.4549560515  MEMB      110             0.0000000000
     14690       116  POPC      H16Y           -9.7866885609       30.1654683914       -1.9574439215  MEMB      110             0.0000000000
     14691       116  POPC      H16Z           -7.9148044368       29.8468927048       -1.8794025783  MEMB      110             0.0000000000
     14692       117  POPS      N               3.6719399033      -33.6680707696      -20.7862554517  MEMB      111             0.0000000000
     14693       117  POPS      HN1             3.5007617525      -34.6379518297      -20.4521463218  MEMB      111             0.0000000000
     14694       117  POPS      HN2             3.7768855065      -33.6804499749      -21.8208727099  MEMB      111             0.0000000000
     14695       117  POPS      HN3             4.4617976669      -33.3071793649      -20.2139951288  MEMB      111             0.0000000000
     14696       117  POPS      C12             2.4790482870      -32.8502385712      -20.4754002904  MEMB      111             0.0000000000
     14697       117  POPS      H12A            1.6002803027      -33.3577046941      -20.8450555951  MEMB      111             0.0000000000
     14698       117  POPS      C13             2.4236163791      -31.4346775401      -21.0037240136  MEMB      111             0.0000000000
     14699       117  POPS      O13A            3.3222257065      -31.0199447388      -21.7665631355  MEMB      111             0.0000000000
     14700       117  POPS      O13B            1.3851264618      -30.6850353929      -20.7519950760  MEMB      111             0.0000000000
     14701       117  POPS      C11             2.4284601090      -32.6763585579      -18.9842242346  MEMB      111             0.0000000000
     14702       117  POPS      H11A            2.9592864887      -31.7703881213      -18.6212339048  MEMB      111             0.0000000000
     14703       117  POPS      H11B            2.8983037336      -33.5477342393      -18.4799700877  MEMB      111             0.0000000000
     14704       117  POPS      P               0.6507293896      -32.6230136809      -17.0066501678  MEMB      111             0.0000000000
     14705       117  POPS      O13             1.5516638032      -33.5679129064      -16.2339752011  MEMB      111             0.0000000000
     14706       117  POPS      O14            -0.7890735133      -32.8080190554      -16.8812854579  MEMB      111             0.0000000000
     14707       117  POPS      O12             1.0657535173      -32.6812331712      -18.5694713258  MEMB      111             0.0000000000
     14708       117  POPS      O11             1.1025311314      -31.1622236167      -16.5404556948  MEMB      111             0.0000000000
     14709       117  POPS      C1              0.9971595375      -29.9479699866      -17.2469448896  MEMB      111             0.0000000000
     14710       117  POPS      HA              0.0976352007      -29.8720335408      -17.8945641641  MEMB      111             0.0000000000
     14711       117  POPS      HB              1.8977505448      -29.8213901913      -17.8850940654  MEMB      111             0.0000000000
     14712       117  POPS      C2              0.8805949925      -28.7467270885      -16.2476089028  MEMB      111             0.0000000000
     14713       117  POPS      HS              1.2313500493      -27.8192032046      -16.7485992861  MEMB      111             0.0000000000
     14714       117  POPS      O21             1.7404621450      -28.9748957448      -15.1381008567  MEMB      111             0.0000000000
     14715       117  POPS      C21             3.0196271152      -29.2725062628      -15.4071109156  MEMB      111             0.0000000000
     14716       117  POPS      O22             3.5387523179      -29.0320176345      -16.4680112984  MEMB      111             0.0000000000
     14717       117  POPS      C22             3.7970268554      -29.6639614416      -14.1438346112  MEMB      111             0.0000000000
     14718       117  POPS      H2R             3.3228430465      -29.3860040891      -13.1783239367  MEMB      111             0.0000000000
     14719       117  POPS      H2S             4.7646533023      -29.1190191087      -14.1763620759  MEMB      111             0.0000000000
     14720       117  POPS      C3             -0.6553739557      -28.5763546131      -15.9104064245  MEMB      111             0.0000000000
     14721       117  POPS      HX             -1.2975216728      -28.4602745881      -16.8095686368  MEMB      111             0.0000000000
     14722       117  POPS      HY             -0.7254407421      -27.6524452307      -15.2973782418  MEMB      111             0.0000000000
     14723       117  POPS      O31            -1.0188782759      -29.6661091546      -15.1350924196  MEMB      111             0.0000000000
     14724       117  POPS      C31            -1.9203631768      -29.5319191464      -14.1005205658  MEMB      111             0.0000000000
     14725       117  POPS      O32            -2.6498509581      -28.6346247423      -13.8405801838  MEMB      111             0.0000000000
     14726       117  POPS      C32            -1.7014460843      -30.7930924888      -13.1523471191  MEMB      111             0.0000000000
     14727       117  POPS      H2X            -0.9142763839      -30.4979120820      -12.4260182387  MEMB      111             0.0000000000
     14728       117  POPS      H2Y            -1.2201917652      -31.5764305670      -13.7761236181  MEMB      111             0.0000000000
     14729       117  POPS      C23             4.1828262875      -31.1190804634      -13.9872494924  MEMB      111             0.0000000000
     14730       117  POPS      H3R             4.2851092258      -31.5679924817      -14.9983563101  MEMB      111             0.0000000000
     14731       117  POPS      H3S             3.2884585425      -31.6440580983      -13.5887196895  MEMB      111             0.0000000000
     14732       117  POPS      C24             5.3321762543      -31.3759951555      -12.9956562046  MEMB      111             0.0000000000
     14733       117  POPS      H4R             6.2562857663      -30.9769014911      -13.4658345531  MEMB      111             0.0000000000
     14734       117  POPS      H4S             5.3580659829      -32.4866433263      -12.9850925903  MEMB      111             0.0000000000
     14735       117  POPS      C25             5.1201634432      -30.8330893086      -11.5430080024  MEMB      111             0.0000000000
     14736       117  POPS      H5R             4.8279176132      -29.7628290952      -11.6018037745  MEMB      111             0.0000000000
     14737       117  POPS      H5S             6.0713291323      -30.9684598183      -10.9850836087  MEMB      111             0.0000000000
     14738       117  POPS      C26             4.0789791116      -31.6589386308      -10.7843837463  MEMB      111             0.0000000000
     14739       117  POPS      H6R             4.4976091847      -32.6851274712      -10.7068823743  MEMB      111             0.0000000000
     14740       117  POPS      H6S             3.0698389657      -31.7933566423      -11.2292305755  MEMB      111             0.0000000000
     14741       117  POPS      C27             4.0289081336      -30.9970594745       -9.3736261486  MEMB      111             0.0000000000
     14742       117  POPS      H7R             5.1015218629      -30.8538407442       -9.1220120772  MEMB      111             0.0000000000
     14743       117  POPS      H7S             3.6671660821      -31.6734618668       -8.5699199276  MEMB      111             0.0000000000
     14744       117  POPS      C28             3.1704302459      -29.6891060619       -9.2946481458  MEMB      111             0.0000000000
     14745       117  POPS      H8R             3.5948360602      -29.0670676370      -10.1115125965  MEMB      111             0.0000000000
     14746       117  POPS      H8S             3.3553572261      -29.3883334487       -8.2412446383  MEMB      111             0.0000000000
     14747       117  POPS      C29             1.7518560223      -30.0334150243       -9.5174435865  MEMB      111             0.0000000000
     14748       117  POPS      H91             1.5125733467      -30.8469320658      -10.2181104005  MEMB      111             0.0000000000
     14749       117  POPS      C210            0.6689348509      -29.4314419357       -8.8931654961  MEMB      111             0.0000000000
     14750       117  POPS      H101           -0.3362682102      -29.7901261949       -9.1594591850  MEMB      111             0.0000000000
     14751       117  POPS      C211            0.8077822405      -28.2815534355       -7.9219677560  MEMB      111             0.0000000000
     14752       117  POPS      H11R           -0.0763712927      -27.6199797561       -8.0440905800  MEMB      111             0.0000000000
     14753       117  POPS      H11S            1.7340115216      -27.6981511383       -8.1118688464  MEMB      111             0.0000000000
     14754       117  POPS      C212            0.9035216012      -28.6231368794       -6.3631713688  MEMB      111             0.0000000000
     14755       117  POPS      H12R           -0.0022343314      -29.1031608895       -5.9347978023  MEMB      111             0.0000000000
     14756       117  POPS      H12S            0.8848130708      -27.5809025707       -5.9788292217  MEMB      111             0.0000000000
     14757       117  POPS      C213            2.2581230029      -29.3303800855       -5.9850208970  MEMB      111             0.0000000000
     14758       117  POPS      H13R            3.1174265442      -28.7091330979       -6.3166385152  MEMB      111             0.0000000000
     14759       117  POPS      H13S            2.2009580926      -30.3096471252       -6.5066417609  MEMB      111             0.0000000000
     14760       117  POPS      C214            2.3212605599      -29.6899676954       -4.5377563199  MEMB      111             0.0000000000
     14761       117  POPS      H14R            1.9034960841      -30.7056549953       -4.3699077169  MEMB      111             0.0000000000
     14762       117  POPS      H14S            1.6463293925      -28.9825500999       -4.0101683839  MEMB      111             0.0000000000
     14763       117  POPS      C215            3.7637740970      -29.6251841118       -3.9584358749  MEMB      111             0.0000000000
     14764       117  POPS      H15R            4.1634104481      -28.5891037310       -3.9923391809  MEMB      111             0.0000000000
     14765       117  POPS      H15S            4.5088526265      -30.0481024625       -4.6657675866  MEMB      111             0.0000000000
     14766       117  POPS      C216            3.8388520980      -30.1701218513       -2.5055479698  MEMB      111             0.0000000000
     14767       117  POPS      H16R            3.0009836918      -29.7297610140       -1.9238438674  MEMB      111             0.0000000000
     14768       117  POPS      H16S            4.7643394896      -29.6451111120       -2.1859261281  MEMB      111             0.0000000000
     14769       117  POPS      C217            3.9380090478      -31.6743970940       -2.5168125119  MEMB      111             0.0000000000
     14770       117  POPS      H17R            4.8584113731      -32.0533604031       -3.0103382325  MEMB      111             0.0000000000
     14771       117  POPS      H17S            2.9780526402      -31.9331815035       -3.0126310514  MEMB      111             0.0000000000
     14772       117  POPS      C218            3.9895676512      -32.1940126572       -1.1543184767  MEMB      111             0.0000000000
     14773       117  POPS      H18R            2.9975703778      -32.0520137590       -0.6746340779  MEMB      111             0.0000000000
     14774       117  POPS      H18S            4.7892323308      -31.7424702054       -0.5290459995  MEMB      111             0.0000000000
     14775       117  POPS      H18T            4.2388984490      -33.2753582774       -1.1009633133  MEMB      111             0.0000000000
     14776       117  POPS      C33            -2.9910910403      -31.1812515163      -12.4489660404  MEMB      111             0.0000000000
     14777       117  POPS      H3X            -3.8308142080      -31.3884714965      -13.1462792413  MEMB      111             0.0000000000
     14778       117  POPS      H3Y            -3.3237732264      -30.3590147248      -11.7799591790  MEMB      111             0.0000000000
     14779       117  POPS      C34            -2.7342811577      -32.6038424424      -11.7529732316  MEMB      111             0.0000000000
     14780       117  POPS      H4X            -1.9558135354      -32.4562528161      -10.9741750869  MEMB      111             0.0000000000
     14781       117  POPS      H4Y            -2.3382815310      -33.3162046737      -12.5079868141  MEMB      111             0.0000000000
     14782       117  POPS      C35            -4.0281631736      -33.1624187319      -11.1284724528  MEMB      111             0.0000000000
     14783       117  POPS      H5X            -3.7121022080      -34.1380367273      -10.7011603528  MEMB      111             0.0000000000
     14784       117  POPS      H5Y            -4.8263066059      -33.4520314240      -11.8450004496  MEMB      111             0.0000000000
     14785       117  POPS      C36            -4.6721797443      -32.2430737404      -10.1089362591  MEMB      111             0.0000000000
     14786       117  POPS      H6X            -5.4996974097      -32.8466854985       -9.6786019442  MEMB      111             0.0000000000
     14787       117  POPS      H6Y            -5.0732365155      -31.3446853641      -10.6250498015  MEMB      111             0.0000000000
     14788       117  POPS      C37            -3.8293926058      -31.8742483357       -8.9316326915  MEMB      111             0.0000000000
     14789       117  POPS      H7X            -4.4765901909      -31.3910525616       -8.1687571013  MEMB      111             0.0000000000
     14790       117  POPS      H7Y            -3.0144549541      -31.1797081228       -9.2279624972  MEMB      111             0.0000000000
     14791       117  POPS      C38            -3.0819607407      -33.0158778093       -8.1950804272  MEMB      111             0.0000000000
     14792       117  POPS      H8X            -2.3057656589      -33.4306143320       -8.8731917467  MEMB      111             0.0000000000
     14793       117  POPS      H8Y            -3.7886048075      -33.8631647479       -8.0643895097  MEMB      111             0.0000000000
     14794       117  POPS      C39            -2.3647244805      -32.3869538560       -6.9744968675  MEMB      111             0.0000000000
     14795       117  POPS      H9X            -3.1202174254      -31.8697314802       -6.3451861393  MEMB      111             0.0000000000
     14796       117  POPS      H9Y            -1.6498937862      -31.6533516970       -7.4048059287  MEMB      111             0.0000000000
     14797       117  POPS      C310           -1.5284373871      -33.3767253616       -6.0817727700  MEMB      111             0.0000000000
     14798       117  POPS      H10X           -0.8552126871      -33.8407395859       -6.8339555987  MEMB      111             0.0000000000
     14799       117  POPS      H10Y           -2.1618816761      -34.2277166604       -5.7517975055  MEMB      111             0.0000000000
     14800       117  POPS      C311           -0.8122232887      -32.6582171945       -4.9058543363  MEMB      111             0.0000000000
     14801       117  POPS      H11X           -1.5472807786      -31.9528763206       -4.4625649715  MEMB      111             0.0000000000
     14802       117  POPS      H11Y           -0.0533627093      -31.9850311577       -5.3589247007  MEMB      111             0.0000000000
     14803       117  POPS      C312           -0.3379251086      -33.6420196687       -3.8826718133  MEMB      111             0.0000000000
     14804       117  POPS      H12X            0.5224227606      -34.2373515909       -4.2564405698  MEMB      111             0.0000000000
     14805       117  POPS      H12Y           -1.1564738504      -34.3425016429       -3.6113350215  MEMB      111             0.0000000000
     14806       117  POPS      C313           -0.0189138161      -32.9383639903       -2.5397773645  MEMB      111             0.0000000000
     14807       117  POPS      H13X           -0.9588559531      -32.6460359863       -2.0246334217  MEMB      111             0.0000000000
     14808       117  POPS      H13Y            0.6082515803      -32.0438219474       -2.7417158662  MEMB      111             0.0000000000
     14809       117  POPS      C314            0.8644241012      -33.8128588555       -1.5560723465  MEMB      111             0.0000000000
     14810       117  POPS      H14X            0.7082047126      -33.3043250788       -0.5807224777  MEMB      111             0.0000000000
     14811       117  POPS      H14Y            1.9511627891      -34.0051113757       -1.6839741752  MEMB      111             0.0000000000
     14812       117  POPS      C315            0.1553778321      -35.1965485584       -1.3587345751  MEMB      111             0.0000000000
     14813       117  POPS      H15X           -0.9369634155      -35.0821295959       -1.1913411304  MEMB      111             0.0000000000
     14814       117  POPS      H15Y            0.4382386250      -35.5476229433       -0.3433234706  MEMB      111             0.0000000000
     14815       117  POPS      C316            0.4436953806      -36.3075301926       -2.3352716319  MEMB      111             0.0000000000
     14816       117  POPS      H16X            0.9889372300      -35.9785146101       -3.2456448346  MEMB      111             0.0000000000
     14817       117  POPS      H16Y           -0.5185740680      -36.6881838008       -2.7395746676  MEMB      111             0.0000000000
     14818       117  POPS      H16Z            1.0568242209      -37.1464795141       -1.9421326741  MEMB      111             0.0000000000
     14819       118  POPC      N             -19.7041556014       23.1142008158      -20.4105410459  MEMB      112             0.0000000000
     14820       118  POPC      C12           -20.2406427882       21.7161865161      -20.5034691244  MEMB      112             0.0000000000
     14821       118  POPC      H12A          -19.8563977069       21.3696702784      -21.4514576338  MEMB      112             0.0000000000
     14822       118  POPC      H12B          -21.3189329453       21.7769346031      -20.5031988973  MEMB      112             0.0000000000
     14823       118  POPC      C13           -18.2433982240       23.2112452711      -20.3873382754  MEMB      112             0.0000000000
     14824       118  POPC      H13A          -17.8438210923       22.8034000393      -21.3040718720  MEMB      112             0.0000000000
     14825       118  POPC      H13B          -17.8585473469       24.2167127662      -20.3017531621  MEMB      112             0.0000000000
     14826       118  POPC      H13C          -17.9516751443       22.5655625172      -19.5722362315  MEMB      112             0.0000000000
     14827       118  POPC      C14           -20.0254574020       23.7294188061      -21.7284956188  MEMB      112             0.0000000000
     14828       118  POPC      H14A          -21.0551136661       23.5458436991      -21.9977691820  MEMB      112             0.0000000000
     14829       118  POPC      H14B          -19.8867351272       24.7989472007      -21.6713538596  MEMB      112             0.0000000000
     14830       118  POPC      H14C          -19.4718770273       23.2697593842      -22.5338911978  MEMB      112             0.0000000000
     14831       118  POPC      C15           -20.2565653663       23.9067851155      -19.2126836875  MEMB      112             0.0000000000
     14832       118  POPC      H15A          -19.7580175841       23.5282557894      -18.3325895578  MEMB      112             0.0000000000
     14833       118  POPC      H15B          -21.3362610417       23.8848252298      -19.2259132520  MEMB      112             0.0000000000
     14834       118  POPC      H15C          -19.8581129026       24.9095416465      -19.1666940882  MEMB      112             0.0000000000
     14835       118  POPC      C11           -19.8606484202       20.7333631192      -19.3655460445  MEMB      112             0.0000000000
     14836       118  POPC      H11A          -18.7787778539       20.4898521728      -19.2978737658  MEMB      112             0.0000000000
     14837       118  POPC      H11B          -20.3406723588       19.7637849805      -19.6181645578  MEMB      112             0.0000000000
     14838       118  POPC      P             -21.6456975068       21.0049927995      -17.4549115275  MEMB      112             0.0000000000
     14839       118  POPC      O13           -22.6080070730       21.5265524249      -18.4129343440  MEMB      112             0.0000000000
     14840       118  POPC      O14           -21.5324885004       21.6505432195      -16.1123410339  MEMB      112             0.0000000000
     14841       118  POPC      O12           -20.2215475721       21.2233865746      -18.0698657536  MEMB      112             0.0000000000
     14842       118  POPC      O11           -21.7945306280       19.5067648057      -17.3418735449  MEMB      112             0.0000000000
     14843       118  POPC      C1            -21.0067500546       18.7481250201      -16.4294610210  MEMB      112             0.0000000000
     14844       118  POPC      HA            -20.1849829760       19.3324247752      -15.9629701214  MEMB      112             0.0000000000
     14845       118  POPC      HB            -20.5168740500       17.9548513851      -17.0336624476  MEMB      112             0.0000000000
     14846       118  POPC      C2            -21.8431671610       18.1375453037      -15.2993048973  MEMB      112             0.0000000000
     14847       118  POPC      HS            -22.4584028460       17.4068752584      -15.8666917206  MEMB      112             0.0000000000
     14848       118  POPC      O21           -22.6840504074       19.0629342249      -14.5585142182  MEMB      112             0.0000000000
     14849       118  POPC      C21           -23.7451018977       18.6315523016      -13.8508929605  MEMB      112             0.0000000000
     14850       118  POPC      O22           -24.3165173855       17.5608875545      -13.9351239692  MEMB      112             0.0000000000
     14851       118  POPC      C22           -24.2973417060       19.8408269957      -12.9782854447  MEMB      112             0.0000000000
     14852       118  POPC      H2R           -25.2776180772       19.5554536894      -12.5401747649  MEMB      112             0.0000000000
     14853       118  POPC      H2S           -24.5018439994       20.7881235758      -13.5215431266  MEMB      112             0.0000000000
     14854       118  POPC      C3            -21.0131183359       17.4084551087      -14.2299516268  MEMB      112             0.0000000000
     14855       118  POPC      HX            -20.3555282311       16.6596549095      -14.7210674472  MEMB      112             0.0000000000
     14856       118  POPC      HY            -21.7024788680       16.8234177257      -13.5843249704  MEMB      112             0.0000000000
     14857       118  POPC      O31           -20.2349131761       18.3000881256      -13.4869102549  MEMB      112             0.0000000000
     14858       118  POPC      C31           -19.5891322665       17.9170539810      -12.3651774118  MEMB      112             0.0000000000
     14859       118  POPC      O32           -19.5558152324       16.7542880460      -11.9293391009  MEMB      112             0.0000000000
     14860       118  POPC      C32           -18.8634265419       19.0819447592      -11.7824076922  MEMB      112             0.0000000000
     14861       118  POPC      H2X           -17.9294574728       18.6754632089      -11.3387911895  MEMB      112             0.0000000000
     14862       118  POPC      H2Y           -19.4521576842       19.4445122075      -10.9127749696  MEMB      112             0.0000000000
     14863       118  POPC      C23           -23.2636954777       20.2258781301      -11.9080536139  MEMB      112             0.0000000000
     14864       118  POPC      H3R           -23.7839443110       20.9826033165      -11.2827303205  MEMB      112             0.0000000000
     14865       118  POPC      H3S           -22.3675850058       20.6930455721      -12.3696394300  MEMB      112             0.0000000000
     14866       118  POPC      C24           -22.8562833967       19.0098715380      -11.1196367322  MEMB      112             0.0000000000
     14867       118  POPC      H4R           -22.0571001911       18.4290790083      -11.6278760577  MEMB      112             0.0000000000
     14868       118  POPC      H4S           -23.7280949498       18.3278861610      -11.0239209440  MEMB      112             0.0000000000
     14869       118  POPC      C25           -22.1940165253       19.2026341749       -9.7362055013  MEMB      112             0.0000000000
     14870       118  POPC      H5R           -22.6231216537       20.1181056791       -9.2756606886  MEMB      112             0.0000000000
     14871       118  POPC      H5S           -21.1101348735       19.4466004158       -9.7347122138  MEMB      112             0.0000000000
     14872       118  POPC      C26           -22.2312322120       17.9152078960       -8.8060984414  MEMB      112             0.0000000000
     14873       118  POPC      H6R           -21.2913404530       17.8980930988       -8.2139570308  MEMB      112             0.0000000000
     14874       118  POPC      H6S           -22.2859358428       17.0658783531       -9.5202181157  MEMB      112             0.0000000000
     14875       118  POPC      C27           -23.3707738497       17.8984486714       -7.7445331250  MEMB      112             0.0000000000
     14876       118  POPC      H7R           -23.2863468353       16.9004189999       -7.2637738312  MEMB      112             0.0000000000
     14877       118  POPC      H7S           -24.3657497817       18.0799339404       -8.2043234593  MEMB      112             0.0000000000
     14878       118  POPC      C28           -23.2032700720       18.9333828755       -6.6151677249  MEMB      112             0.0000000000
     14879       118  POPC      H8R           -24.1764865115       18.8687962053       -6.0831903451  MEMB      112             0.0000000000
     14880       118  POPC      H8S           -23.0758642141       19.8807027226       -7.1814486616  MEMB      112             0.0000000000
     14881       118  POPC      C29           -22.0099971172       18.6726613889       -5.6905176822  MEMB      112             0.0000000000
     14882       118  POPC      H91           -21.0510701230       19.1421979952       -5.9550810054  MEMB      112             0.0000000000
     14883       118  POPC      C210          -22.0010498205       18.0451297437       -4.5083837073  MEMB      112             0.0000000000
     14884       118  POPC      H101          -21.0463385436       18.1610208905       -3.9744399204  MEMB      112             0.0000000000
     14885       118  POPC      C211          -23.1636225874       17.4560520592       -3.7458200419  MEMB      112             0.0000000000
     14886       118  POPC      H11R          -24.0296105462       17.4507463809       -4.4417782734  MEMB      112             0.0000000000
     14887       118  POPC      H11S          -23.2795105066       18.0578291479       -2.8191301116  MEMB      112             0.0000000000
     14888       118  POPC      C212          -23.0372243005       15.9723567014       -3.5187500914  MEMB      112             0.0000000000
     14889       118  POPC      H12R          -22.7084379562       15.4489446105       -4.4419298619  MEMB      112             0.0000000000
     14890       118  POPC      H12S          -24.0242353797       15.5262901848       -3.2714557220  MEMB      112             0.0000000000
     14891       118  POPC      C213          -22.0105403956       15.5181650374       -2.5457198647  MEMB      112             0.0000000000
     14892       118  POPC      H13R          -21.0601950501       15.9828978147       -2.8851120876  MEMB      112             0.0000000000
     14893       118  POPC      H13S          -21.8402870922       14.4204829820       -2.5664236653  MEMB      112             0.0000000000
     14894       118  POPC      C214          -22.4118739458       16.0904332273       -1.1058347926  MEMB      112             0.0000000000
     14895       118  POPC      H14R          -23.3399736219       15.5215162200       -0.8838310133  MEMB      112             0.0000000000
     14896       118  POPC      H14S          -22.5885786495       17.1862995759       -1.0592180405  MEMB      112             0.0000000000
     14897       118  POPC      C215          -21.3953786395       15.5540658903       -0.0757678775  MEMB      112             0.0000000000
     14898       118  POPC      H15R          -21.4143356555       14.4432473647       -0.0823683923  MEMB      112             0.0000000000
     14899       118  POPC      H15S          -21.6972005415       15.9116824580        0.9318710490  MEMB      112             0.0000000000
     14900       118  POPC      C216          -19.9808044831       16.0700635629       -0.2967129761  MEMB      112             0.0000000000
     14901       118  POPC      H16R          -19.6319383465       15.3873388368       -1.1007651766  MEMB      112             0.0000000000
     14902       118  POPC      H16S          -19.4615769847       15.7834510884        0.6427429113  MEMB      112             0.0000000000
     14903       118  POPC      C217          -19.7665501915       17.5935696847       -0.6387218358  MEMB      112             0.0000000000
     14904       118  POPC      H17R          -20.2142952310       18.1655785874        0.2019046180  MEMB      112             0.0000000000
     14905       118  POPC      H17S          -20.2499644260       17.8228182857       -1.6124131191  MEMB      112             0.0000000000
     14906       118  POPC      C218          -18.3092608691       18.1904943894       -0.6091424145  MEMB      112             0.0000000000
     14907       118  POPC      H18R          -17.7457918574       17.8392870719        0.2816308544  MEMB      112             0.0000000000
     14908       118  POPC      H18S          -18.3157800494       19.2965650216       -0.7134802252  MEMB      112             0.0000000000
     14909       118  POPC      H18T          -17.8724621068       17.8224808604       -1.5620815156  MEMB      112             0.0000000000
     14910       118  POPC      C33           -18.5413361662       20.3293725703      -12.7209707975  MEMB      112             0.0000000000
     14911       118  POPC      H3X           -19.4885046791       20.7459508251      -13.1255140812  MEMB      112             0.0000000000
     14912       118  POPC      H3Y           -17.8837803259       19.8307098460      -13.4647963098  MEMB      112             0.0000000000
     14913       118  POPC      C34           -17.7053152571       21.4554966572      -12.1177182287  MEMB      112             0.0000000000
     14914       118  POPC      H4X           -17.2840934346       22.1585910549      -12.8677523593  MEMB      112             0.0000000000
     14915       118  POPC      H4Y           -16.8161639884       21.1322315620      -11.5352830871  MEMB      112             0.0000000000
     14916       118  POPC      C35           -18.5495096397       22.5188025746      -11.3101674721  MEMB      112             0.0000000000
     14917       118  POPC      H5X           -19.0897721431       23.2409428872      -11.9589750120  MEMB      112             0.0000000000
     14918       118  POPC      H5Y           -17.8643269909       23.2087253623      -10.7727177670  MEMB      112             0.0000000000
     14919       118  POPC      C36           -19.6162638160       21.9675397790      -10.3014615392  MEMB      112             0.0000000000
     14920       118  POPC      H6X           -19.1237186512       21.2717847392       -9.5889692524  MEMB      112             0.0000000000
     14921       118  POPC      H6Y           -20.3249496366       21.3011810717      -10.8381654595  MEMB      112             0.0000000000
     14922       118  POPC      C37           -20.2675128491       23.0749204532       -9.4680425885  MEMB      112             0.0000000000
     14923       118  POPC      H7X           -20.9870788227       23.6422648012      -10.0962666872  MEMB      112             0.0000000000
     14924       118  POPC      H7Y           -19.4806903626       23.7236798638       -9.0271997520  MEMB      112             0.0000000000
     14925       118  POPC      C38           -21.0285682309       22.6141839191       -8.2457231628  MEMB      112             0.0000000000
     14926       118  POPC      H8X           -21.6178833338       21.7804305923       -8.6837693969  MEMB      112             0.0000000000
     14927       118  POPC      H8Y           -21.7184976815       23.4307467752       -7.9431619199  MEMB      112             0.0000000000
     14928       118  POPC      C39           -20.3096449470       22.2268709337       -6.9721158239  MEMB      112             0.0000000000
     14929       118  POPC      H9X           -19.7511472130       21.3147268910       -7.2727726589  MEMB      112             0.0000000000
     14930       118  POPC      H9Y           -21.0409483983       21.8359592200       -6.2327217763  MEMB      112             0.0000000000
     14931       118  POPC      C310          -19.3490370751       23.2295521144       -6.3254344099  MEMB      112             0.0000000000
     14932       118  POPC      H10X          -19.8961694980       24.0254874781       -5.7763857274  MEMB      112             0.0000000000
     14933       118  POPC      H10Y          -18.7868800345       23.7822851133       -7.1082420706  MEMB      112             0.0000000000
     14934       118  POPC      C311          -18.3352133711       22.5129528225       -5.3815116550  MEMB      112             0.0000000000
     14935       118  POPC      H11X          -17.6144203553       23.3158545692       -5.1166972431  MEMB      112             0.0000000000
     14936       118  POPC      H11Y          -17.7557072582       21.7901564941       -5.9947489092  MEMB      112             0.0000000000
     14937       118  POPC      C312          -18.9822959834       21.7140611628       -4.2287676171  MEMB      112             0.0000000000
     14938       118  POPC      H12X          -18.2035721068       21.1574822120       -3.6647373288  MEMB      112             0.0000000000
     14939       118  POPC      H12Y          -19.8261698135       21.1005877992       -4.6106685101  MEMB      112             0.0000000000
     14940       118  POPC      C313          -19.6845774061       22.6697054443       -3.1694433016  MEMB      112             0.0000000000
     14941       118  POPC      H13X          -20.5158926589       23.3072859314       -3.5392096714  MEMB      112             0.0000000000
     14942       118  POPC      H13Y          -18.9428535264       23.4616633410       -2.9307610847  MEMB      112             0.0000000000
     14943       118  POPC      C314          -20.1835506565       21.9341980728       -1.9384319501  MEMB      112             0.0000000000
     14944       118  POPC      H14X          -20.4646590463       22.6757875903       -1.1603944216  MEMB      112             0.0000000000
     14945       118  POPC      H14Y          -19.4023335221       21.2542692549       -1.5362927657  MEMB      112             0.0000000000
     14946       118  POPC      C315          -21.4792911952       20.9937855974       -2.2462203932  MEMB      112             0.0000000000
     14947       118  POPC      H15X          -21.0103502535       20.0649291570       -2.6356308521  MEMB      112             0.0000000000
     14948       118  POPC      H15Y          -22.0597454709       21.4504496468       -3.0761901747  MEMB      112             0.0000000000
     14949       118  POPC      C316          -22.3805991816       20.6637408409       -1.0620079328  MEMB      112             0.0000000000
     14950       118  POPC      H16X          -21.9464504900       19.9818189706       -0.2998946181  MEMB      112             0.0000000000
     14951       118  POPC      H16Y          -23.3363070718       20.2070182170       -1.3971912755  MEMB      112             0.0000000000
     14952       118  POPC      H16Z          -22.6283788607       21.6243446810       -0.5618415483  MEMB      112             0.0000000000
     14953       119  POPC      N             -30.0156589178       10.2080114896      -20.2496822902  MEMB      113             0.0000000000
     14954       119  POPC      C12           -28.6543659567       10.8214157807      -19.9920491786  MEMB      113             0.0000000000
     14955       119  POPC      H12A          -28.8626832347       11.8810123084      -19.9759524136  MEMB      113             0.0000000000
     14956       119  POPC      H12B          -28.0124540446       10.5390602303      -20.8134043527  MEMB      113             0.0000000000
     14957       119  POPC      C13           -30.9727126033       10.4361006091      -19.1007492400  MEMB      113             0.0000000000
     14958       119  POPC      H13A          -31.1015916689       11.4845230651      -18.8758036510  MEMB      113             0.0000000000
     14959       119  POPC      H13B          -31.9355632555       10.0154804249      -19.3505440876  MEMB      113             0.0000000000
     14960       119  POPC      H13C          -30.6329556106        9.8196090320      -18.2816624254  MEMB      113             0.0000000000
     14961       119  POPC      C14           -30.7793570874       10.8937254354      -21.3571768156  MEMB      113             0.0000000000
     14962       119  POPC      H14A          -30.3281149089       10.7893063997      -22.3328188686  MEMB      113             0.0000000000
     14963       119  POPC      H14B          -31.7721930069       10.4781850065      -21.2677160326  MEMB      113             0.0000000000
     14964       119  POPC      H14C          -30.8479169426       11.9402076563      -21.0991565234  MEMB      113             0.0000000000
     14965       119  POPC      C15           -29.9142232244        8.7363491087      -20.5751928075  MEMB      113             0.0000000000
     14966       119  POPC      H15A          -29.6238626535        8.2229511685      -19.6704755514  MEMB      113             0.0000000000
     14967       119  POPC      H15B          -29.0404323508        8.6318904556      -21.2012742815  MEMB      113             0.0000000000
     14968       119  POPC      H15C          -30.8777460084        8.3885860269      -20.9173693260  MEMB      113             0.0000000000
     14969       119  POPC      C11           -27.9495019788       10.3956364838      -18.7261436132  MEMB      113             0.0000000000
     14970       119  POPC      H11A          -28.5578028393       10.4761495060      -17.7999639544  MEMB      113             0.0000000000
     14971       119  POPC      H11B          -27.0534348357       10.9874613567      -18.4413136722  MEMB      113             0.0000000000
     14972       119  POPC      P             -27.4279093975        8.0318035128      -17.7505291009  MEMB      113             0.0000000000
     14973       119  POPC      O13           -26.9990292056        8.6077316776      -16.5412767452  MEMB      113             0.0000000000
     14974       119  POPC      O14           -26.7055922790        6.8019896451      -18.1565954303  MEMB      113             0.0000000000
     14975       119  POPC      O12           -27.3977246937        9.0867442143      -18.9349487124  MEMB      113             0.0000000000
     14976       119  POPC      O11           -28.9877184596        7.8395556106      -17.6156560661  MEMB      113             0.0000000000
     14977       119  POPC      C1            -29.6240545240        6.8105314241      -16.8101112943  MEMB      113             0.0000000000
     14978       119  POPC      HA            -29.0625012607        6.6517853897      -15.8647126408  MEMB      113             0.0000000000
     14979       119  POPC      HB            -29.6492173020        5.9086812407      -17.4584585854  MEMB      113             0.0000000000
     14980       119  POPC      C2            -30.9621310485        7.3508954234      -16.4414160191  MEMB      113             0.0000000000
     14981       119  POPC      HS            -31.6242909998        7.3432675393      -17.3334962160  MEMB      113             0.0000000000
     14982       119  POPC      O21           -30.8250244156        8.6939454669      -16.0000403653  MEMB      113             0.0000000000
     14983       119  POPC      C21           -31.7927177308        9.5339795772      -15.6925043143  MEMB      113             0.0000000000
     14984       119  POPC      O22           -32.9819084029        9.4296858079      -15.9090729653  MEMB      113             0.0000000000
     14985       119  POPC      C22           -31.1055482069       10.6316776016      -14.8541684483  MEMB      113             0.0000000000
     14986       119  POPC      H2R           -31.1367192049       11.5470196031      -15.4830552497  MEMB      113             0.0000000000
     14987       119  POPC      H2S           -30.0725339153       10.4441466048      -14.4908030159  MEMB      113             0.0000000000
     14988       119  POPC      C3            -31.7218234077        6.5072261504      -15.3124450524  MEMB      113             0.0000000000
     14989       119  POPC      HX            -32.0799056107        5.5238402591      -15.6853397905  MEMB      113             0.0000000000
     14990       119  POPC      HY            -32.6531758886        7.0306292314      -15.0075638930  MEMB      113             0.0000000000
     14991       119  POPC      O31           -30.7070684028        6.1941971283      -14.2616003102  MEMB      113             0.0000000000
     14992       119  POPC      C31           -30.8360431602        6.9409421461      -13.1455551157  MEMB      113             0.0000000000
     14993       119  POPC      O32           -31.5937390943        7.8531453583      -12.9879392370  MEMB      113             0.0000000000
     14994       119  POPC      C32           -29.8239133334        6.3093457154      -12.1609999265  MEMB      113             0.0000000000
     14995       119  POPC      H2X           -28.7603430449        6.3953320410      -12.4704274760  MEMB      113             0.0000000000
     14996       119  POPC      H2Y           -30.0582459104        5.2314614850      -12.0284288385  MEMB      113             0.0000000000
     14997       119  POPC      C23           -31.9778888336       10.9237883173      -13.6514376463  MEMB      113             0.0000000000
     14998       119  POPC      H3R           -31.9111747406       10.1982400358      -12.8127188389  MEMB      113             0.0000000000
     14999       119  POPC      H3S           -33.0492610686       11.1400904886      -13.8506754752  MEMB      113             0.0000000000
     15000       119  POPC      C24           -31.5398661591       12.2712326867      -12.9971489077  MEMB      113             0.0000000000
     15001       119  POPC      H4R           -31.6395655086       13.0547391697      -13.7784930366  MEMB      113             0.0000000000
     15002       119  POPC      H4S           -30.4386095301       12.2952540395      -12.8523117657  MEMB      113             0.0000000000
     15003       119  POPC      C25           -32.3803165079       12.6882264987      -11.7065669925  MEMB      113             0.0000000000
     15004       119  POPC      H5R           -33.4312791470       12.6429980795      -12.0639919919  MEMB      113             0.0000000000
     15005       119  POPC      H5S           -32.0555109392       13.7077776943      -11.4076720199  MEMB      113             0.0000000000
     15006       119  POPC      C26           -32.1049130585       11.7788274593      -10.4984516534  MEMB      113             0.0000000000
     15007       119  POPC      H6R           -31.4095102212       10.9588351450      -10.7783594273  MEMB      113             0.0000000000
     15008       119  POPC      H6S           -33.0791483246       11.4063545741      -10.1157627632  MEMB      113             0.0000000000
     15009       119  POPC      C27           -31.5742618371       12.5107791501       -9.3546427751  MEMB      113             0.0000000000
     15010       119  POPC      H7R           -32.1252528399       13.4532767758       -9.1486631606  MEMB      113             0.0000000000
     15011       119  POPC      H7S           -30.5661533090       12.9352395461       -9.5492484935  MEMB      113             0.0000000000
     15012       119  POPC      C28           -31.5813772137       11.6483863300       -7.9971114287  MEMB      113             0.0000000000
     15013       119  POPC      H8R           -31.0427049769       12.2225353915       -7.2132071940  MEMB      113             0.0000000000
     15014       119  POPC      H8S           -30.9055808410       10.7997071150       -8.2366197084  MEMB      113             0.0000000000
     15015       119  POPC      C29           -32.9565696762       11.3223177976       -7.5530515685  MEMB      113             0.0000000000
     15016       119  POPC      H91           -33.7191718990       12.1087753361       -7.6526620957  MEMB      113             0.0000000000
     15017       119  POPC      C210          -33.2450661983       10.1456446247       -6.9762279040  MEMB      113             0.0000000000
     15018       119  POPC      H101          -34.2510541960       10.0481546993       -6.5420809451  MEMB      113             0.0000000000
     15019       119  POPC      C211          -32.3975663610        8.9350433604       -6.6484889281  MEMB      113             0.0000000000
     15020       119  POPC      H11R          -31.4289255721        9.0559912399       -7.1789861104  MEMB      113             0.0000000000
     15021       119  POPC      H11S          -32.9697535409        8.0240055646       -6.9258571162  MEMB      113             0.0000000000
     15022       119  POPC      C212          -32.0093317929        8.6715647184       -5.2081611920  MEMB      113             0.0000000000
     15023       119  POPC      H12R          -31.0996629317        9.2761135239       -5.0048281786  MEMB      113             0.0000000000
     15024       119  POPC      H12S          -31.6696680246        7.6167474200       -5.1287256526  MEMB      113             0.0000000000
     15025       119  POPC      C213          -33.0287851598        8.8902317649       -4.1959323805  MEMB      113             0.0000000000
     15026       119  POPC      H13R          -33.9318018132        8.3036273955       -4.4693867255  MEMB      113             0.0000000000
     15027       119  POPC      H13S          -33.4722219050        9.9053517196       -4.1109830199  MEMB      113             0.0000000000
     15028       119  POPC      C214          -32.6364017079        8.3556153427       -2.8264594848  MEMB      113             0.0000000000
     15029       119  POPC      H14R          -32.3479250071        7.2940895082       -2.9822320053  MEMB      113             0.0000000000
     15030       119  POPC      H14S          -33.4569678781        8.4450817524       -2.0828270312  MEMB      113             0.0000000000
     15031       119  POPC      C215          -31.4730114707        9.0955206598       -2.1407463173  MEMB      113             0.0000000000
     15032       119  POPC      H15R          -30.5419340952        9.1005856196       -2.7468720138  MEMB      113             0.0000000000
     15033       119  POPC      H15S          -31.2276437265        8.6383077194       -1.1583648031  MEMB      113             0.0000000000
     15034       119  POPC      C216          -31.7102319554       10.6524720662       -2.0090855670  MEMB      113             0.0000000000
     15035       119  POPC      H16R          -32.6991124526       10.7917765897       -1.5222285304  MEMB      113             0.0000000000
     15036       119  POPC      H16S          -31.7685366411       11.0850126958       -3.0307667878  MEMB      113             0.0000000000
     15037       119  POPC      C217          -30.8519052625       11.4552874243       -1.0684268886  MEMB      113             0.0000000000
     15038       119  POPC      H17R          -30.6997930810       10.7161586149       -0.2530295567  MEMB      113             0.0000000000
     15039       119  POPC      H17S          -31.4150801373       12.3508936996       -0.7292438041  MEMB      113             0.0000000000
     15040       119  POPC      C218          -29.5383332694       11.9177743381       -1.6538493582  MEMB      113             0.0000000000
     15041       119  POPC      H18R          -29.6372662206       12.6712121610       -2.4643210363  MEMB      113             0.0000000000
     15042       119  POPC      H18S          -28.9374493894       11.1069580484       -2.1184326167  MEMB      113             0.0000000000
     15043       119  POPC      H18T          -28.8868989225       12.4391796071       -0.9203021250  MEMB      113             0.0000000000
     15044       119  POPC      C33           -29.8826444269        6.9600006706      -10.7671615624  MEMB      113             0.0000000000
     15045       119  POPC      H3X           -30.9047041044        6.7882156896      -10.3669058324  MEMB      113             0.0000000000
     15046       119  POPC      H3Y           -29.6570630151        8.0462654130      -10.8260084209  MEMB      113             0.0000000000
     15047       119  POPC      C34           -28.8205504282        6.3082958288       -9.8387041353  MEMB      113             0.0000000000
     15048       119  POPC      H4X           -27.9015906185        6.4700360308      -10.4417578382  MEMB      113             0.0000000000
     15049       119  POPC      H4Y           -29.0485868340        5.2255773087       -9.7384984932  MEMB      113             0.0000000000
     15050       119  POPC      C35           -28.6575191746        7.0689675008       -8.4974271710  MEMB      113             0.0000000000
     15051       119  POPC      H5X           -28.0576070004        6.3593290482       -7.8884610990  MEMB      113             0.0000000000
     15052       119  POPC      H5Y           -29.6133965299        7.1325726609       -7.9347791588  MEMB      113             0.0000000000
     15053       119  POPC      C36           -27.9618754073        8.4360106626       -8.6110745653  MEMB      113             0.0000000000
     15054       119  POPC      H6X           -28.6054496804        9.3132004747       -8.8361775241  MEMB      113             0.0000000000
     15055       119  POPC      H6Y           -27.2288935866        8.3243209201       -9.4384708032  MEMB      113             0.0000000000
     15056       119  POPC      C37           -27.2339978457        8.9414203052       -7.3125727333  MEMB      113             0.0000000000
     15057       119  POPC      H7X           -26.4456996677        9.6796551832       -7.5731789225  MEMB      113             0.0000000000
     15058       119  POPC      H7Y           -26.5880927472        8.0860407541       -7.0202492221  MEMB      113             0.0000000000
     15059       119  POPC      C38           -28.2887562971        9.4454222923       -6.3194441942  MEMB      113             0.0000000000
     15060       119  POPC      H8X           -29.3019593711        9.4180262562       -6.7744054285  MEMB      113             0.0000000000
     15061       119  POPC      H8Y           -28.1070991090       10.5318785225       -6.1747568545  MEMB      113             0.0000000000
     15062       119  POPC      C39           -28.3102627448        8.7712488104       -4.9397231459  MEMB      113             0.0000000000
     15063       119  POPC      H9X           -28.9965640876        9.2823807580       -4.2311646338  MEMB      113             0.0000000000
     15064       119  POPC      H9Y           -27.3134080391        9.0062300792       -4.5091585103  MEMB      113             0.0000000000
     15065       119  POPC      C310          -28.5419908695        7.2788637154       -5.0683665052  MEMB      113             0.0000000000
     15066       119  POPC      H10X          -27.6604535944        6.8222184785       -5.5670527619  MEMB      113             0.0000000000
     15067       119  POPC      H10Y          -29.5274945105        7.2167393300       -5.5775265574  MEMB      113             0.0000000000
     15068       119  POPC      C311          -28.6856083241        6.4900247167       -3.7173749037  MEMB      113             0.0000000000
     15069       119  POPC      H11X          -28.5681143539        5.4329251684       -4.0383993100  MEMB      113             0.0000000000
     15070       119  POPC      H11Y          -29.7384042557        6.6418050553       -3.3965879873  MEMB      113             0.0000000000
     15071       119  POPC      C312          -27.6459995800        6.9869268850       -2.7152958327  MEMB      113             0.0000000000
     15072       119  POPC      H12X          -27.6842603561        8.0929451537       -2.6174159257  MEMB      113             0.0000000000
     15073       119  POPC      H12Y          -26.6991814186        6.7097565588       -3.2262103797  MEMB      113             0.0000000000
     15074       119  POPC      C313          -27.6572850505        6.3316584463       -1.3727944455  MEMB      113             0.0000000000
     15075       119  POPC      H13X          -26.6680914552        6.6660981690       -0.9933641140  MEMB      113             0.0000000000
     15076       119  POPC      H13Y          -27.7446486381        5.2305233945       -1.4919170323  MEMB      113             0.0000000000
     15077       119  POPC      C314          -28.8526270267        6.8985131408       -0.5112541897  MEMB      113             0.0000000000
     15078       119  POPC      H14X          -29.8331800753        6.6202050377       -0.9532740026  MEMB      113             0.0000000000
     15079       119  POPC      H14Y          -28.8465466597        8.0094456543       -0.5218791195  MEMB      113             0.0000000000
     15080       119  POPC      C315          -28.9096400904        6.2796658751        0.9524041120  MEMB      113             0.0000000000
     15081       119  POPC      H15X          -27.9462587105        6.4458068753        1.4802432925  MEMB      113             0.0000000000
     15082       119  POPC      H15Y          -29.1779822614        5.2106509189        0.8126896646  MEMB      113             0.0000000000
     15083       119  POPC      C316          -29.9643721788        7.1308163600        1.7258786157  MEMB      113             0.0000000000
     15084       119  POPC      H16X          -31.0297692822        7.0705797111        1.4166509761  MEMB      113             0.0000000000
     15085       119  POPC      H16Y          -29.6839769334        8.1855010947        1.5176980035  MEMB      113             0.0000000000
     15086       119  POPC      H16Z          -29.9324293555        6.9615531082        2.8234443764  MEMB      113             0.0000000000
     15087       120  POPS      N             -20.0410563669      -24.5831356187      -18.5478159752  MEMB      114             0.0000000000
     15088       120  POPS      HN1           -19.2677055804      -24.4132875996      -17.8735163063  MEMB      114             0.0000000000
     15089       120  POPS      HN2           -20.6005086264      -23.8189301982      -18.9774711400  MEMB      114             0.0000000000
     15090       120  POPS      HN3           -20.7287858466      -25.2110982907      -18.0849001460  MEMB      114             0.0000000000
     15091       120  POPS      C12           -19.5425204148      -25.4185214256      -19.7384407753  MEMB      114             0.0000000000
     15092       120  POPS      H12A          -18.6732305196      -24.9527848439      -20.1786958616  MEMB      114             0.0000000000
     15093       120  POPS      C13           -20.6083718488      -25.5670054424      -20.8291611905  MEMB      114             0.0000000000
     15094       120  POPS      O13A          -21.7951445487      -25.1054859523      -20.6206629059  MEMB      114             0.0000000000
     15095       120  POPS      O13B          -20.3709146664      -26.2476594443      -21.8302421829  MEMB      114             0.0000000000
     15096       120  POPS      C11           -19.0727044244      -26.7720269566      -19.1215363940  MEMB      114             0.0000000000
     15097       120  POPS      H11A          -18.7994761411      -27.4794820887      -19.9334320237  MEMB      114             0.0000000000
     15098       120  POPS      H11B          -19.9613272685      -27.2012101146      -18.6111715047  MEMB      114             0.0000000000
     15099       120  POPS      P             -17.2851926016      -27.7834215517      -17.7086818867  MEMB      114             0.0000000000
     15100       120  POPS      O13           -16.4266370032      -27.6220491360      -16.4746057871  MEMB      114             0.0000000000
     15101       120  POPS      O14           -16.7098192599      -28.5966283133      -18.8124883227  MEMB      114             0.0000000000
     15102       120  POPS      O12           -18.0826747217      -26.5087699991      -18.2015045587  MEMB      114             0.0000000000
     15103       120  POPS      O11           -18.4454826430      -28.6984033652      -17.1148600322  MEMB      114             0.0000000000
     15104       120  POPS      C1            -18.2512970697      -29.7471702099      -16.2461879173  MEMB      114             0.0000000000
     15105       120  POPS      HA            -17.1771458592      -29.8461180115      -15.9802368925  MEMB      114             0.0000000000
     15106       120  POPS      HB            -18.4881117630      -30.7463282854      -16.6703610831  MEMB      114             0.0000000000
     15107       120  POPS      C2            -18.8818795014      -29.6187689886      -14.8563279321  MEMB      114             0.0000000000
     15108       120  POPS      HS            -19.9626292460      -29.8477145964      -14.9741616553  MEMB      114             0.0000000000
     15109       120  POPS      O21           -18.7713421033      -28.3526299307      -14.2861170614  MEMB      114             0.0000000000
     15110       120  POPS      C21           -19.6214602341      -27.4649667544      -14.8016050858  MEMB      114             0.0000000000
     15111       120  POPS      O22           -20.3385063689      -27.5687185268      -15.7571920375  MEMB      114             0.0000000000
     15112       120  POPS      C22           -19.6102617286      -26.2762168947      -13.8882011510  MEMB      114             0.0000000000
     15113       120  POPS      H2R           -20.3763913837      -26.3364599508      -13.0858689882  MEMB      114             0.0000000000
     15114       120  POPS      H2S           -19.8936165177      -25.4026363463      -14.5134118135  MEMB      114             0.0000000000
     15115       120  POPS      C3            -18.2799010019      -30.4680777071      -13.6902266971  MEMB      114             0.0000000000
     15116       120  POPS      HX            -18.2722971510      -31.5699864028      -13.8318618149  MEMB      114             0.0000000000
     15117       120  POPS      HY            -19.0105124221      -30.2970517339      -12.8709114345  MEMB      114             0.0000000000
     15118       120  POPS      O31           -16.9355505942      -30.0838182277      -13.3854525324  MEMB      114             0.0000000000
     15119       120  POPS      C31           -16.5904009860      -29.6870156750      -12.2347529240  MEMB      114             0.0000000000
     15120       120  POPS      O32           -17.3436566920      -29.6919765511      -11.2691862425  MEMB      114             0.0000000000
     15121       120  POPS      C32           -15.1795031824      -29.2203114503      -12.2614852561  MEMB      114             0.0000000000
     15122       120  POPS      H2X           -15.0319937883      -28.2605541452      -12.8013255210  MEMB      114             0.0000000000
     15123       120  POPS      H2Y           -14.5836507360      -30.0272049507      -12.7391922270  MEMB      114             0.0000000000
     15124       120  POPS      C23           -18.1864296928      -25.8780234860      -13.4851132769  MEMB      114             0.0000000000
     15125       120  POPS      H3R           -17.4185338585      -26.0636596211      -14.2662638669  MEMB      114             0.0000000000
     15126       120  POPS      H3S           -17.7740686589      -26.4557989051      -12.6304466130  MEMB      114             0.0000000000
     15127       120  POPS      C24           -18.0142750548      -24.3718195263      -13.2431598073  MEMB      114             0.0000000000
     15128       120  POPS      H4R           -18.8774542524      -23.9778265184      -12.6652222417  MEMB      114             0.0000000000
     15129       120  POPS      H4S           -18.0584697076      -23.8963310654      -14.2462945833  MEMB      114             0.0000000000
     15130       120  POPS      C25           -16.7408818605      -23.8758835937      -12.5688488539  MEMB      114             0.0000000000
     15131       120  POPS      H5R           -16.5965955323      -22.8046017359      -12.8254761328  MEMB      114             0.0000000000
     15132       120  POPS      H5S           -15.9297000604      -24.4292299239      -13.0885724804  MEMB      114             0.0000000000
     15133       120  POPS      C26           -16.7160326790      -24.0134107063      -11.0449988497  MEMB      114             0.0000000000
     15134       120  POPS      H6R           -15.8141500342      -23.5294677911      -10.6128787645  MEMB      114             0.0000000000
     15135       120  POPS      H6S           -16.8449802896      -25.0525995917      -10.6738116094  MEMB      114             0.0000000000
     15136       120  POPS      C27           -17.8959619920      -23.2723200673      -10.3637122709  MEMB      114             0.0000000000
     15137       120  POPS      H7R           -18.8263070241      -23.8110015845      -10.6440710200  MEMB      114             0.0000000000
     15138       120  POPS      H7S           -18.0329764902      -22.2860842360      -10.8565469340  MEMB      114             0.0000000000
     15139       120  POPS      C28           -17.7273904753      -23.0537581560       -8.8165300183  MEMB      114             0.0000000000
     15140       120  POPS      H8R           -16.8834162737      -22.3393244633       -8.7087663679  MEMB      114             0.0000000000
     15141       120  POPS      H8S           -17.4588818180      -23.9254281932       -8.1821675151  MEMB      114             0.0000000000
     15142       120  POPS      C29           -19.0118552325      -22.5169489048       -8.2056459987  MEMB      114             0.0000000000
     15143       120  POPS      H91           -19.0806984138      -21.4194094198       -8.2314756535  MEMB      114             0.0000000000
     15144       120  POPS      C210          -20.0060732314      -23.1884127487       -7.4779823917  MEMB      114             0.0000000000
     15145       120  POPS      H101          -20.8699561973      -22.6666809274       -7.0403726819  MEMB      114             0.0000000000
     15146       120  POPS      C211          -19.9958903380      -24.6564791046       -7.1420673270  MEMB      114             0.0000000000
     15147       120  POPS      H11R          -19.0692877677      -25.1727147530       -7.4725660726  MEMB      114             0.0000000000
     15148       120  POPS      H11S          -20.8595810016      -25.0128736693       -7.7431848717  MEMB      114             0.0000000000
     15149       120  POPS      C212          -20.2458870197      -25.1496529510       -5.6586344684  MEMB      114             0.0000000000
     15150       120  POPS      H12R          -21.3216067752      -25.1309193469       -5.3815117355  MEMB      114             0.0000000000
     15151       120  POPS      H12S          -19.7078473126      -24.4175964587       -5.0191599861  MEMB      114             0.0000000000
     15152       120  POPS      C213          -19.6188441301      -26.4538791715       -5.1220777900  MEMB      114             0.0000000000
     15153       120  POPS      H13R          -19.3949054469      -26.3636640557       -4.0376273865  MEMB      114             0.0000000000
     15154       120  POPS      H13S          -18.6689525127      -26.5957977703       -5.6805459683  MEMB      114             0.0000000000
     15155       120  POPS      C214          -20.6267839255      -27.6076365405       -5.3123091407  MEMB      114             0.0000000000
     15156       120  POPS      H14R          -20.5643751369      -27.8754058669       -6.3887507361  MEMB      114             0.0000000000
     15157       120  POPS      H14S          -21.6202549010      -27.1384764326       -5.1473083382  MEMB      114             0.0000000000
     15158       120  POPS      C215          -20.3067187823      -28.8532002774       -4.4808615784  MEMB      114             0.0000000000
     15159       120  POPS      H15R          -19.3501138187      -29.3175381954       -4.8027600353  MEMB      114             0.0000000000
     15160       120  POPS      H15S          -21.0156656774      -29.6740459124       -4.7215453590  MEMB      114             0.0000000000
     15161       120  POPS      C216          -20.2966469701      -28.6423129913       -2.9764661047  MEMB      114             0.0000000000
     15162       120  POPS      H16R          -19.3435092433      -28.1189712575       -2.7485125572  MEMB      114             0.0000000000
     15163       120  POPS      H16S          -20.1829606654      -29.5385457379       -2.3298096754  MEMB      114             0.0000000000
     15164       120  POPS      C217          -21.5092009588      -27.8561688769       -2.5027111490  MEMB      114             0.0000000000
     15165       120  POPS      H17R          -22.4367122965      -28.3765623285       -2.8240113388  MEMB      114             0.0000000000
     15166       120  POPS      H17S          -21.5270437046      -26.8564469814       -2.9870234926  MEMB      114             0.0000000000
     15167       120  POPS      C218          -21.6562412694      -27.4955050785       -1.0342092813  MEMB      114             0.0000000000
     15168       120  POPS      H18R          -21.6656624140      -28.3453823598       -0.3187077312  MEMB      114             0.0000000000
     15169       120  POPS      H18S          -22.6420713387      -27.0053933284       -0.8850427853  MEMB      114             0.0000000000
     15170       120  POPS      H18T          -20.8741765116      -26.8170973713       -0.6311469619  MEMB      114             0.0000000000
     15171       120  POPS      C33           -14.6559654431      -29.0157496489      -10.8651110102  MEMB      114             0.0000000000
     15172       120  POPS      H3X           -13.6013253511      -29.3168759372      -11.0422514245  MEMB      114             0.0000000000
     15173       120  POPS      H3Y           -15.0280464893      -29.7870076822      -10.1572707292  MEMB      114             0.0000000000
     15174       120  POPS      C34           -14.7629726439      -27.5036509101      -10.5033999310  MEMB      114             0.0000000000
     15175       120  POPS      H4X           -15.8683315096      -27.3922099548      -10.5125595105  MEMB      114             0.0000000000
     15176       120  POPS      H4Y           -14.1782127411      -26.9074720816      -11.2361669958  MEMB      114             0.0000000000
     15177       120  POPS      C35           -14.2808424754      -26.9872204400       -9.1386044419  MEMB      114             0.0000000000
     15178       120  POPS      H5X           -13.1786005157      -27.1158227654       -9.0852604645  MEMB      114             0.0000000000
     15179       120  POPS      H5Y           -14.6230397007      -27.7004428904       -8.3585167312  MEMB      114             0.0000000000
     15180       120  POPS      C36           -14.5823528667      -25.4882391959       -8.8429825076  MEMB      114             0.0000000000
     15181       120  POPS      H6X           -15.6805744552      -25.4217090086       -8.9972688087  MEMB      114             0.0000000000
     15182       120  POPS      H6Y           -14.0123134120      -24.8450511682       -9.5470312434  MEMB      114             0.0000000000
     15183       120  POPS      C37           -14.2431868722      -24.8959389998       -7.4763615401  MEMB      114             0.0000000000
     15184       120  POPS      H7X           -14.1996473065      -23.7914868418       -7.5886603467  MEMB      114             0.0000000000
     15185       120  POPS      H7Y           -13.2655717878      -25.2648861257       -7.0989134357  MEMB      114             0.0000000000
     15186       120  POPS      C38           -15.2631311929      -25.3222460062       -6.4290759648  MEMB      114             0.0000000000
     15187       120  POPS      H8X           -15.3069756890      -26.4314061192       -6.4755788635  MEMB      114             0.0000000000
     15188       120  POPS      H8Y           -16.2217429011      -24.9329849072       -6.8338734576  MEMB      114             0.0000000000
     15189       120  POPS      C39           -14.9228639401      -24.8960385791       -5.0605623820  MEMB      114             0.0000000000
     15190       120  POPS      H9X           -14.7076389203      -23.8098198196       -5.1507195092  MEMB      114             0.0000000000
     15191       120  POPS      H9Y           -14.0061569319      -25.4258685519       -4.7240369515  MEMB      114             0.0000000000
     15192       120  POPS      C310          -16.0163237907      -25.2741396847       -4.0011491967  MEMB      114             0.0000000000
     15193       120  POPS      H10X          -16.9929317046      -24.8878288180       -4.3635325299  MEMB      114             0.0000000000
     15194       120  POPS      H10Y          -15.8243721348      -24.8437324255       -2.9950554262  MEMB      114             0.0000000000
     15195       120  POPS      C311          -16.2174706097      -26.8348768613       -3.7603308997  MEMB      114             0.0000000000
     15196       120  POPS      H11X          -16.3324350094      -27.2733068263       -4.7746691702  MEMB      114             0.0000000000
     15197       120  POPS      H11Y          -17.1683448634      -26.9118370614       -3.1909127389  MEMB      114             0.0000000000
     15198       120  POPS      C312          -15.1117513119      -27.3660682978       -2.8796618694  MEMB      114             0.0000000000
     15199       120  POPS      H12X          -14.8833703199      -26.4981740260       -2.2247394461  MEMB      114             0.0000000000
     15200       120  POPS      H12Y          -14.1533823029      -27.7094182060       -3.3245892316  MEMB      114             0.0000000000
     15201       120  POPS      C313          -15.5164256821      -28.6870686916       -2.0062715884  MEMB      114             0.0000000000
     15202       120  POPS      H13X          -16.5175307268      -28.5388298721       -1.5478656566  MEMB      114             0.0000000000
     15203       120  POPS      H13Y          -14.6703164218      -28.8232817335       -1.2992586668  MEMB      114             0.0000000000
     15204       120  POPS      C314          -15.7274093780      -29.9588261538       -2.8675657380  MEMB      114             0.0000000000
     15205       120  POPS      H14X          -14.6984090908      -30.2924396013       -3.1209074388  MEMB      114             0.0000000000
     15206       120  POPS      H14Y          -16.2491823944      -29.6875695774       -3.8101651718  MEMB      114             0.0000000000
     15207       120  POPS      C315          -16.5101316597      -31.0299192113       -2.2249555055  MEMB      114             0.0000000000
     15208       120  POPS      H15X          -16.3900519218      -32.0024829755       -2.7484266457  MEMB      114             0.0000000000
     15209       120  POPS      H15Y          -17.5759621436      -30.7164654051       -2.2335087551  MEMB      114             0.0000000000
     15210       120  POPS      C316          -16.1643985132      -31.3275406855       -0.7366394314  MEMB      114             0.0000000000
     15211       120  POPS      H16X          -16.5329308687      -32.3174958486       -0.3924100433  MEMB      114             0.0000000000
     15212       120  POPS      H16Y          -16.5064319250      -30.5204665072       -0.0540224417  MEMB      114             0.0000000000
     15213       120  POPS      H16Z          -15.0573555217      -31.4161093521       -0.7671742628  MEMB      114             0.0000000000
     15214       121  POPC      N             -29.9895053787       -9.1719677691      -19.2949364857  MEMB      115             0.0000000000
     15215       121  POPC      C12           -31.4222560057       -9.6168274098      -19.6956783698  MEMB      115             0.0000000000
     15216       121  POPC      H12A          -31.5560385388      -10.6171527241      -19.3111638449  MEMB      115             0.0000000000
     15217       121  POPC      H12B          -31.4407948345       -9.5993473450      -20.7753776160  MEMB      115             0.0000000000
     15218       121  POPC      C13           -29.8306179000       -8.5892077441      -17.9200333314  MEMB      115             0.0000000000
     15219       121  POPC      H13A          -30.3284406874       -7.6308721306      -17.9071770090  MEMB      115             0.0000000000
     15220       121  POPC      H13B          -30.3550282899       -9.1882648511      -17.1902906208  MEMB      115             0.0000000000
     15221       121  POPC      H13C          -28.7665620431       -8.6016751425      -17.7355619136  MEMB      115             0.0000000000
     15222       121  POPC      C14           -29.1554172279      -10.4980890618      -19.3020247079  MEMB      115             0.0000000000
     15223       121  POPC      H14A          -29.3429263994      -10.9558037915      -20.2620963679  MEMB      115             0.0000000000
     15224       121  POPC      H14B          -28.1313368576      -10.1700433619      -19.2017994749  MEMB      115             0.0000000000
     15225       121  POPC      H14C          -29.6030495893      -11.0791746773      -18.5093299407  MEMB      115             0.0000000000
     15226       121  POPC      C15           -29.4135686014       -8.1216046961      -20.1560007345  MEMB      115             0.0000000000
     15227       121  POPC      H15A          -29.4029754270       -8.4494918982      -21.1849701344  MEMB      115             0.0000000000
     15228       121  POPC      H15B          -28.3549245654       -7.9671548190      -20.0082914227  MEMB      115             0.0000000000
     15229       121  POPC      H15C          -29.9360846663       -7.1873181670      -20.0128725074  MEMB      115             0.0000000000
     15230       121  POPC      C11           -32.5985468340       -8.8178050475      -19.1793763701  MEMB      115             0.0000000000
     15231       121  POPC      H11A          -32.6588918307       -8.9212245591      -18.0748475508  MEMB      115             0.0000000000
     15232       121  POPC      H11B          -33.5663021897       -9.0898211849      -19.6524280621  MEMB      115             0.0000000000
     15233       121  POPC      P             -33.1889417610       -6.2686924459      -18.7566057659  MEMB      115             0.0000000000
     15234       121  POPC      O13           -34.6155442068       -6.4687810528      -19.0957807374  MEMB      115             0.0000000000
     15235       121  POPC      O14           -32.4631005537       -5.0288998965      -19.0325075496  MEMB      115             0.0000000000
     15236       121  POPC      O12           -32.3328193558       -7.4315481326      -19.4119533786  MEMB      115             0.0000000000
     15237       121  POPC      O11           -33.0054744697       -6.5630027246      -17.1551025646  MEMB      115             0.0000000000
     15238       121  POPC      C1            -32.3910827082       -5.5611790174      -16.4384830041  MEMB      115             0.0000000000
     15239       121  POPC      HA            -32.9645545095       -4.6100327513      -16.4106955894  MEMB      115             0.0000000000
     15240       121  POPC      HB            -31.3593633680       -5.4476961376      -16.8347126190  MEMB      115             0.0000000000
     15241       121  POPC      C2            -32.2895965029       -6.2067918533      -15.0011842192  MEMB      115             0.0000000000
     15242       121  POPC      HS            -31.8043003695       -5.3614021945      -14.4681503780  MEMB      115             0.0000000000
     15243       121  POPC      O21           -31.5217905765       -7.3757596664      -15.1053394186  MEMB      115             0.0000000000
     15244       121  POPC      C21           -30.9852350455       -7.8255277024      -13.9965022408  MEMB      115             0.0000000000
     15245       121  POPC      O22           -31.0482586346       -7.3137466578      -12.8601401869  MEMB      115             0.0000000000
     15246       121  POPC      C22           -30.1192623815       -9.1496554917      -14.3545879752  MEMB      115             0.0000000000
     15247       121  POPC      H2R           -29.2394646601       -8.7630420074      -14.9120886028  MEMB      115             0.0000000000
     15248       121  POPC      H2S           -30.7270569935       -9.8549406265      -14.9607889160  MEMB      115             0.0000000000
     15249       121  POPC      C3            -33.7411732495       -6.4965754210      -14.5778594057  MEMB      115             0.0000000000
     15250       121  POPC      HX            -33.9547749235       -7.4679907028      -15.0728822378  MEMB      115             0.0000000000
     15251       121  POPC      HY            -34.4364310154       -5.7325859698      -14.9868308197  MEMB      115             0.0000000000
     15252       121  POPC      O31           -33.7506840554       -6.6554787914      -13.1486880874  MEMB      115             0.0000000000
     15253       121  POPC      C31           -34.3919095541       -5.6573665204      -12.5595891728  MEMB      115             0.0000000000
     15254       121  POPC      O32           -34.9842283111       -4.7742631209      -13.1291273776  MEMB      115             0.0000000000
     15255       121  POPC      C32           -34.4706189732       -5.8941177497      -11.0554116107  MEMB      115             0.0000000000
     15256       121  POPC      H2X           -33.8222504631       -6.7409027432      -10.7441334753  MEMB      115             0.0000000000
     15257       121  POPC      H2Y           -35.5330696040       -6.1380883328      -10.8409400242  MEMB      115             0.0000000000
     15258       121  POPC      C23           -29.7149810044       -9.8171496527      -13.0728211739  MEMB      115             0.0000000000
     15259       121  POPC      H3R           -29.4845794018       -8.9954197733      -12.3614873479  MEMB      115             0.0000000000
     15260       121  POPC      H3S           -28.8410504908      -10.4880080689      -13.2160535138  MEMB      115             0.0000000000
     15261       121  POPC      C24           -30.8222882378      -10.5815361776      -12.3477517766  MEMB      115             0.0000000000
     15262       121  POPC      H4R           -30.8026074770      -11.6732481901      -12.5529297787  MEMB      115             0.0000000000
     15263       121  POPC      H4S           -31.8055211579      -10.0870272305      -12.4995244606  MEMB      115             0.0000000000
     15264       121  POPC      C25           -30.5279153345      -10.4547258097      -10.7747805732  MEMB      115             0.0000000000
     15265       121  POPC      H5R           -30.1472790668       -9.4145058365      -10.6888793775  MEMB      115             0.0000000000
     15266       121  POPC      H5S           -29.8811051366      -11.3308524699      -10.5548719249  MEMB      115             0.0000000000
     15267       121  POPC      C26           -31.7712279593      -10.7213041974       -9.8825873291  MEMB      115             0.0000000000
     15268       121  POPC      H6R           -32.5790506411      -10.0309755567      -10.2069170902  MEMB      115             0.0000000000
     15269       121  POPC      H6S           -31.5594362344      -10.4920230632       -8.8163342766  MEMB      115             0.0000000000
     15270       121  POPC      C27           -32.4435792832      -12.1260411506       -9.9904407926  MEMB      115             0.0000000000
     15271       121  POPC      H7R           -31.7589537769      -12.9055886676       -9.5930571119  MEMB      115             0.0000000000
     15272       121  POPC      H7S           -32.6127806454      -12.3507964570      -11.0652326897  MEMB      115             0.0000000000
     15273       121  POPC      C28           -33.7699436131      -12.2549014905       -9.1656500701  MEMB      115             0.0000000000
     15274       121  POPC      H8R           -33.4272855397      -12.0461077708       -8.1296426108  MEMB      115             0.0000000000
     15275       121  POPC      H8S           -34.0371595084      -13.3312391071       -9.0992122237  MEMB      115             0.0000000000
     15276       121  POPC      C29           -34.8737864131      -11.4260527511       -9.7332225567  MEMB      115             0.0000000000
     15277       121  POPC      H91           -35.4738485495      -11.7870612383      -10.5815142231  MEMB      115             0.0000000000
     15278       121  POPC      C210          -35.3027903393      -10.2083176757       -9.5008516197  MEMB      115             0.0000000000
     15279       121  POPC      H101          -36.0997881540       -9.8174575861      -10.1504845135  MEMB      115             0.0000000000
     15280       121  POPC      C211          -34.7379284116       -9.2526010609       -8.4468921148  MEMB      115             0.0000000000
     15281       121  POPC      H11R          -35.6351788101       -8.6613565331       -8.1645931538  MEMB      115             0.0000000000
     15282       121  POPC      H11S          -34.0400152787       -8.5156710471       -8.8987466403  MEMB      115             0.0000000000
     15283       121  POPC      C212          -34.1173074940       -9.6864589978       -7.1072220048  MEMB      115             0.0000000000
     15284       121  POPC      H12R          -33.1704251293      -10.2313638183       -7.3092446757  MEMB      115             0.0000000000
     15285       121  POPC      H12S          -34.8053764295      -10.3206556995       -6.5083256652  MEMB      115             0.0000000000
     15286       121  POPC      C213          -33.8967793913       -8.4931858521       -6.2662373836  MEMB      115             0.0000000000
     15287       121  POPC      H13R          -34.0402433115       -7.6142393642       -6.9304599402  MEMB      115             0.0000000000
     15288       121  POPC      H13S          -32.8424640735       -8.5088619290       -5.9162448759  MEMB      115             0.0000000000
     15289       121  POPC      C214          -34.8318152704       -8.2818845460       -5.0562007388  MEMB      115             0.0000000000
     15290       121  POPC      H14R          -34.4962757889       -8.9184590253       -4.2097329797  MEMB      115             0.0000000000
     15291       121  POPC      H14S          -35.8902290044       -8.5257790643       -5.2898607412  MEMB      115             0.0000000000
     15292       121  POPC      C215          -34.7078853844       -6.9065017276       -4.3979845837  MEMB      115             0.0000000000
     15293       121  POPC      H15R          -35.2467740258       -6.1137052416       -4.9595841728  MEMB      115             0.0000000000
     15294       121  POPC      H15S          -33.6378496463       -6.6090383517       -4.4273117320  MEMB      115             0.0000000000
     15295       121  POPC      C216          -35.1583755191       -7.0648149299       -2.9581929240  MEMB      115             0.0000000000
     15296       121  POPC      H16R          -34.3957899766       -7.6502896259       -2.4014138022  MEMB      115             0.0000000000
     15297       121  POPC      H16S          -36.1030370843       -7.6446403992       -2.8824434377  MEMB      115             0.0000000000
     15298       121  POPC      C217          -35.5453816105       -5.6871347589       -2.3759375053  MEMB      115             0.0000000000
     15299       121  POPC      H17R          -36.1419164476       -5.8641309387       -1.4555352772  MEMB      115             0.0000000000
     15300       121  POPC      H17S          -36.1440659296       -5.1744407297       -3.1589086233  MEMB      115             0.0000000000
     15301       121  POPC      C218          -34.4084389030       -4.7078285562       -2.1974264107  MEMB      115             0.0000000000
     15302       121  POPC      H18R          -34.6614776921       -3.9626180915       -1.4132360940  MEMB      115             0.0000000000
     15303       121  POPC      H18S          -34.1599297516       -4.2250683672       -3.1667072696  MEMB      115             0.0000000000
     15304       121  POPC      H18T          -33.4961665417       -5.2177980556       -1.8205814404  MEMB      115             0.0000000000
     15305       121  POPC      C33           -34.1590720354       -4.6267915421      -10.3091835536  MEMB      115             0.0000000000
     15306       121  POPC      H3X           -34.3329405820       -4.8502263978       -9.2348618970  MEMB      115             0.0000000000
     15307       121  POPC      H3Y           -34.7525066400       -3.7611448408      -10.6736180942  MEMB      115             0.0000000000
     15308       121  POPC      C34           -32.6722664488       -4.2163563668      -10.3254800250  MEMB      115             0.0000000000
     15309       121  POPC      H4X           -32.5757099309       -3.1780563504       -9.9421641841  MEMB      115             0.0000000000
     15310       121  POPC      H4Y           -32.3809922394       -4.1648238662      -11.3963787397  MEMB      115             0.0000000000
     15311       121  POPC      C35           -31.6271428549       -5.1566939243       -9.6906558032  MEMB      115             0.0000000000
     15312       121  POPC      H5X           -30.6221481093       -4.7493729115       -9.9323092606  MEMB      115             0.0000000000
     15313       121  POPC      H5Y           -31.6437968552       -6.0908874554      -10.2917596874  MEMB      115             0.0000000000
     15314       121  POPC      C36           -31.8037443361       -5.5733870864       -8.1963684332  MEMB      115             0.0000000000
     15315       121  POPC      H6X           -32.5611011062       -6.3857761779       -8.1688792221  MEMB      115             0.0000000000
     15316       121  POPC      H6Y           -32.1025008665       -4.7437195187       -7.5205598630  MEMB      115             0.0000000000
     15317       121  POPC      C37           -30.4375576344       -6.0931670585       -7.7143090316  MEMB      115             0.0000000000
     15318       121  POPC      H7X           -29.6670871344       -5.4165776011       -8.1420033676  MEMB      115             0.0000000000
     15319       121  POPC      H7Y           -30.3671875046       -7.1058214490       -8.1658623739  MEMB      115             0.0000000000
     15320       121  POPC      C38           -30.3210651715       -6.1148035760       -6.1571798538  MEMB      115             0.0000000000
     15321       121  POPC      H8X           -30.7324233449       -7.0320764619       -5.6841940462  MEMB      115             0.0000000000
     15322       121  POPC      H8Y           -30.9577629002       -5.2591097077       -5.8461741652  MEMB      115             0.0000000000
     15323       121  POPC      C39           -28.8740058175       -5.7919702066       -5.6082090764  MEMB      115             0.0000000000
     15324       121  POPC      H9X           -28.9508106459       -5.4902346130       -4.5417304847  MEMB      115             0.0000000000
     15325       121  POPC      H9Y           -28.3981066335       -4.9670324638       -6.1803270051  MEMB      115             0.0000000000
     15326       121  POPC      C310          -28.0061434825       -7.0350943569       -5.6697151779  MEMB      115             0.0000000000
     15327       121  POPC      H10X          -26.9662137908       -6.7204012230       -5.4376911962  MEMB      115             0.0000000000
     15328       121  POPC      H10Y          -27.8169374455       -7.3451389236       -6.7196648798  MEMB      115             0.0000000000
     15329       121  POPC      C311          -28.5100749730       -8.2394398681       -4.7899143649  MEMB      115             0.0000000000
     15330       121  POPC      H11X          -27.7307530912       -9.0312331448       -4.7963671177  MEMB      115             0.0000000000
     15331       121  POPC      H11Y          -29.4633714330       -8.6096368622       -5.2240813642  MEMB      115             0.0000000000
     15332       121  POPC      C312          -28.7748340607       -8.0072632409       -3.2235586321  MEMB      115             0.0000000000
     15333       121  POPC      H12X          -29.4119569115       -7.1008112766       -3.1414583267  MEMB      115             0.0000000000
     15334       121  POPC      H12Y          -27.7891103605       -7.8380557819       -2.7397842958  MEMB      115             0.0000000000
     15335       121  POPC      C313          -29.2322859787       -9.2176070152       -2.3943012555  MEMB      115             0.0000000000
     15336       121  POPC      H13X          -28.7454953462       -9.9972811212       -3.0183718638  MEMB      115             0.0000000000
     15337       121  POPC      H13Y          -30.3195072935       -9.4433052742       -2.4307831515  MEMB      115             0.0000000000
     15338       121  POPC      C314          -28.8619028079       -9.3241130612       -0.8622949074  MEMB      115             0.0000000000
     15339       121  POPC      H14X          -27.7620358368       -9.1676649236       -0.8505702694  MEMB      115             0.0000000000
     15340       121  POPC      H14Y          -28.9375448047      -10.3826200569       -0.5334144234  MEMB      115             0.0000000000
     15341       121  POPC      C315          -29.5580842912       -8.2338124525        0.0183133086  MEMB      115             0.0000000000
     15342       121  POPC      H15X          -30.2605950383       -7.6817548300       -0.6420149233  MEMB      115             0.0000000000
     15343       121  POPC      H15Y          -28.7583757845       -7.5159528108        0.3002067823  MEMB      115             0.0000000000
     15344       121  POPC      C316          -30.2963021983       -8.8508648197        1.2205295842  MEMB      115             0.0000000000
     15345       121  POPC      H16X          -30.8651139470       -8.0024041683        1.6574380008  MEMB      115             0.0000000000
     15346       121  POPC      H16Y          -29.6190365456       -9.3743901333        1.9287355952  MEMB      115             0.0000000000
     15347       121  POPC      H16Z          -31.0563721713       -9.5208133296        0.7646969338  MEMB      115             0.0000000000
     15348       122  POPC      N              26.5415074244      -19.4739939034      -21.0799273684  MEMB      116             0.0000000000
     15349       122  POPC      C12            25.7861985028      -20.7041639726      -20.3171916286  MEMB      116             0.0000000000
     15350       122  POPC      H12A           26.5005722527      -21.2305952356      -19.7016104413  MEMB      116             0.0000000000
     15351       122  POPC      H12B           25.3247530368      -21.3001242053      -21.0906899384  MEMB      116             0.0000000000
     15352       122  POPC      C13            26.8490725579      -18.3697970685      -20.1061062885  MEMB      116             0.0000000000
     15353       122  POPC      H13A           25.8828493366      -18.1334238391      -19.6854634518  MEMB      116             0.0000000000
     15354       122  POPC      H13B           27.4051737011      -18.9699946215      -19.4011846427  MEMB      116             0.0000000000
     15355       122  POPC      H13C           27.5023827780      -17.6318807686      -20.5477682464  MEMB      116             0.0000000000
     15356       122  POPC      C14            27.8066615111      -20.0205177661      -21.7039755351  MEMB      116             0.0000000000
     15357       122  POPC      H14A           28.2553421441      -19.2941946408      -22.3654438626  MEMB      116             0.0000000000
     15358       122  POPC      H14B           28.5547173866      -20.3280095618      -20.9882511600  MEMB      116             0.0000000000
     15359       122  POPC      H14C           27.5046156610      -20.9022922111      -22.2495413375  MEMB      116             0.0000000000
     15360       122  POPC      C15            25.5985990513      -18.9587644018      -22.0990032476  MEMB      116             0.0000000000
     15361       122  POPC      H15A           25.5173017424      -19.7302348460      -22.8504181500  MEMB      116             0.0000000000
     15362       122  POPC      H15B           26.0511015747      -18.0394470578      -22.4403200273  MEMB      116             0.0000000000
     15363       122  POPC      H15C           24.6463941463      -18.6541587591      -21.6904433096  MEMB      116             0.0000000000
     15364       122  POPC      C11            24.6839029834      -20.3687860784      -19.4020390826  MEMB      116             0.0000000000
     15365       122  POPC      H11A           24.0317436870      -21.2628886170      -19.3041108912  MEMB      116             0.0000000000
     15366       122  POPC      H11B           23.9644653061      -19.5819620822      -19.7145104567  MEMB      116             0.0000000000
     15367       122  POPC      P              24.9545457515      -20.8760589514      -16.8167787320  MEMB      116             0.0000000000
     15368       122  POPC      O13            24.8714242265      -22.2788326400      -17.2644099182  MEMB      116             0.0000000000
     15369       122  POPC      O14            23.9434640956      -20.4503140628      -15.8706232833  MEMB      116             0.0000000000
     15370       122  POPC      O12            25.1317495438      -19.8961161733      -18.1605609601  MEMB      116             0.0000000000
     15371       122  POPC      O11            26.3802988478      -20.6596682490      -16.1793839595  MEMB      116             0.0000000000
     15372       122  POPC      C1             27.5391973533      -21.2529644233      -16.7970386723  MEMB      116             0.0000000000
     15373       122  POPC      HA             27.5749780910      -20.9155044497      -17.8549430633  MEMB      116             0.0000000000
     15374       122  POPC      HB             27.4642034427      -22.3613796057      -16.8076585594  MEMB      116             0.0000000000
     15375       122  POPC      C2             28.7829913259      -20.5360095185      -16.2150974259  MEMB      116             0.0000000000
     15376       122  POPC      HS             29.6860017750      -20.9347726113      -16.7248828712  MEMB      116             0.0000000000
     15377       122  POPC      O21            28.9031156755      -20.6146654486      -14.7844610516  MEMB      116             0.0000000000
     15378       122  POPC      C21            28.9301426849      -21.8316760536      -14.3262002714  MEMB      116             0.0000000000
     15379       122  POPC      O22            29.1805945420      -22.8928364243      -14.8876476580  MEMB      116             0.0000000000
     15380       122  POPC      C22            28.6409634057      -21.6976898501      -12.8625945717  MEMB      116             0.0000000000
     15381       122  POPC      H2R            28.4550785366      -22.7176521539      -12.4632894263  MEMB      116             0.0000000000
     15382       122  POPC      H2S            27.7758075221      -21.0235748100      -12.6854074122  MEMB      116             0.0000000000
     15383       122  POPC      C3             28.7179936288      -18.9708321609      -16.4206861716  MEMB      116             0.0000000000
     15384       122  POPC      HX             28.4427583219      -18.8678877766      -17.4921193803  MEMB      116             0.0000000000
     15385       122  POPC      HY             29.7074412080      -18.5116099660      -16.2099024894  MEMB      116             0.0000000000
     15386       122  POPC      O31            27.6300831739      -18.3599958106      -15.6731719404  MEMB      116             0.0000000000
     15387       122  POPC      C31            27.8023940155      -18.0847082079      -14.3652196391  MEMB      116             0.0000000000
     15388       122  POPC      O32            28.8972663602      -18.0780804025      -13.8667093006  MEMB      116             0.0000000000
     15389       122  POPC      C32            26.4786133271      -17.9850439568      -13.5913086611  MEMB      116             0.0000000000
     15390       122  POPC      H2X            25.8893176109      -18.9072994064      -13.7823482170  MEMB      116             0.0000000000
     15391       122  POPC      H2Y            25.8214177390      -17.1039348302      -13.7527468842  MEMB      116             0.0000000000
     15392       122  POPC      C23            29.8263971863      -21.0196655031      -12.1542836919  MEMB      116             0.0000000000
     15393       122  POPC      H3R            30.0863856849      -20.0414987579      -12.6124507463  MEMB      116             0.0000000000
     15394       122  POPC      H3S            30.6601818747      -21.7328092691      -12.3290686248  MEMB      116             0.0000000000
     15395       122  POPC      C24            29.6323879857      -20.8458899800      -10.6548674097  MEMB      116             0.0000000000
     15396       122  POPC      H4R            28.7033584748      -20.2658067882      -10.4685105152  MEMB      116             0.0000000000
     15397       122  POPC      H4S            30.5176242554      -20.3033882006      -10.2594323694  MEMB      116             0.0000000000
     15398       122  POPC      C25            29.4753642203      -22.1870549446       -9.8783302061  MEMB      116             0.0000000000
     15399       122  POPC      H5R            30.4262704315      -22.7055521856       -9.6308249813  MEMB      116             0.0000000000
     15400       122  POPC      H5S            28.8125898580      -22.8888145880      -10.4284071764  MEMB      116             0.0000000000
     15401       122  POPC      C26            28.7796723249      -22.0758963488       -8.4712064865  MEMB      116             0.0000000000
     15402       122  POPC      H6R            29.0267785958      -23.0777764464       -8.0595082199  MEMB      116             0.0000000000
     15403       122  POPC      H6S            27.7004966728      -21.9176568930       -8.6825386835  MEMB      116             0.0000000000
     15404       122  POPC      C27            29.2259226690      -20.9183577776       -7.5948303160  MEMB      116             0.0000000000
     15405       122  POPC      H7R            28.5734859143      -21.0135607416       -6.7006361905  MEMB      116             0.0000000000
     15406       122  POPC      H7S            28.8043292219      -20.0217473168       -8.0974923840  MEMB      116             0.0000000000
     15407       122  POPC      C28            30.6994571292      -20.7906021611       -7.2480380211  MEMB      116             0.0000000000
     15408       122  POPC      H8R            31.1973542168      -20.4259660359       -8.1718669135  MEMB      116             0.0000000000
     15409       122  POPC      H8S            31.0093590258      -21.8020449688       -6.9085304458  MEMB      116             0.0000000000
     15410       122  POPC      C29            30.8996458590      -19.8287854878       -6.1030578238  MEMB      116             0.0000000000
     15411       122  POPC      H91            30.8152879778      -18.7753736455       -6.4083561101  MEMB      116             0.0000000000
     15412       122  POPC      C210           30.9462875449      -20.1092178586       -4.8166459661  MEMB      116             0.0000000000
     15413       122  POPC      H101           30.8875608932      -19.3027181475       -4.0709178922  MEMB      116             0.0000000000
     15414       122  POPC      C211           30.7302885359      -21.4857291530       -4.1866692516  MEMB      116             0.0000000000
     15415       122  POPC      H11R           31.6088786994      -22.0610405642       -4.5491841008  MEMB      116             0.0000000000
     15416       122  POPC      H11S           29.8355334464      -21.9834825410       -4.6179181199  MEMB      116             0.0000000000
     15417       122  POPC      C212           30.6818636946      -21.4399944926       -2.6525009159  MEMB      116             0.0000000000
     15418       122  POPC      H12R           30.3976373759      -20.4319079394       -2.2819636861  MEMB      116             0.0000000000
     15419       122  POPC      H12S           31.6492660895      -21.6612882711       -2.1530195458  MEMB      116             0.0000000000
     15420       122  POPC      C213           29.5454222993      -22.4395364206       -2.1509866991  MEMB      116             0.0000000000
     15421       122  POPC      H13R           28.6592922798      -22.4528720813       -2.8209976124  MEMB      116             0.0000000000
     15422       122  POPC      H13S           29.2403405979      -22.0407466211       -1.1599197717  MEMB      116             0.0000000000
     15423       122  POPC      C214           30.0283037612      -23.8890167864       -1.9551029464  MEMB      116             0.0000000000
     15424       122  POPC      H14R           30.5163956432      -23.7151738397       -0.9723175655  MEMB      116             0.0000000000
     15425       122  POPC      H14S           30.5940225268      -24.3874071411       -2.7711233641  MEMB      116             0.0000000000
     15426       122  POPC      C215           28.7561570877      -24.7645835390       -1.5759843093  MEMB      116             0.0000000000
     15427       122  POPC      H15R           28.2654994723      -25.0880184270       -2.5188342298  MEMB      116             0.0000000000
     15428       122  POPC      H15S           27.9407539977      -24.2623024508       -1.0128209127  MEMB      116             0.0000000000
     15429       122  POPC      C216           29.1752444524      -26.0014902293       -0.8309643281  MEMB      116             0.0000000000
     15430       122  POPC      H16R           29.7691073203      -25.7278473209        0.0672390060  MEMB      116             0.0000000000
     15431       122  POPC      H16S           29.8404315675      -26.5538311423       -1.5286511334  MEMB      116             0.0000000000
     15432       122  POPC      C217           28.0131716377      -26.9339722019       -0.3108462647  MEMB      116             0.0000000000
     15433       122  POPC      H17R           28.4192861050      -27.9049210254        0.0450330753  MEMB      116             0.0000000000
     15434       122  POPC      H17S           27.2771157373      -27.1920853233       -1.1019983812  MEMB      116             0.0000000000
     15435       122  POPC      C218           27.1897423081      -26.4113441106        0.8365746508  MEMB      116             0.0000000000
     15436       122  POPC      H18R           26.6700892075      -25.4587921874        0.5979811019  MEMB      116             0.0000000000
     15437       122  POPC      H18S           27.6966522105      -26.3298617749        1.8218278609  MEMB      116             0.0000000000
     15438       122  POPC      H18T           26.2882267783      -27.0576221901        0.8991477396  MEMB      116             0.0000000000
     15439       122  POPC      C33            26.8201685344      -17.8554378612      -12.0638096739  MEMB      116             0.0000000000
     15440       122  POPC      H3X            27.4515623355      -16.9521990385      -11.9230161674  MEMB      116             0.0000000000
     15441       122  POPC      H3Y            27.4171456858      -18.7107903897      -11.6813035853  MEMB      116             0.0000000000
     15442       122  POPC      C34            25.5905982665      -17.7573027476      -11.1830154566  MEMB      116             0.0000000000
     15443       122  POPC      H4X            25.1638271831      -18.7823840220      -11.1456558848  MEMB      116             0.0000000000
     15444       122  POPC      H4Y            24.8473303225      -17.0197909654      -11.5544320004  MEMB      116             0.0000000000
     15445       122  POPC      C35            25.9301172607      -17.2513932384       -9.7568395281  MEMB      116             0.0000000000
     15446       122  POPC      H5X            25.0068215877      -16.7915529577       -9.3440524367  MEMB      116             0.0000000000
     15447       122  POPC      H5Y            26.5829378779      -16.3591112722       -9.8662881498  MEMB      116             0.0000000000
     15448       122  POPC      C36            26.7473565402      -18.2103323157       -8.8983807520  MEMB      116             0.0000000000
     15449       122  POPC      H6X            27.8286092447      -18.0874209964       -9.1222244872  MEMB      116             0.0000000000
     15450       122  POPC      H6Y            26.4532302551      -19.2497102019       -9.1581969988  MEMB      116             0.0000000000
     15451       122  POPC      C37            26.6133079638      -18.0817474671       -7.3458380000  MEMB      116             0.0000000000
     15452       122  POPC      H7X            26.4503964866      -16.9970760569       -7.1690079013  MEMB      116             0.0000000000
     15453       122  POPC      H7Y            27.5001199137      -18.5651266910       -6.8829879372  MEMB      116             0.0000000000
     15454       122  POPC      C38            25.2582230817      -18.7212314332       -6.9782554946  MEMB      116             0.0000000000
     15455       122  POPC      H8X            25.2186395156      -19.7980576635       -7.2488095486  MEMB      116             0.0000000000
     15456       122  POPC      H8Y            24.5260174605      -18.0332408263       -7.4524539125  MEMB      116             0.0000000000
     15457       122  POPC      C39            25.0323223020      -18.6408102009       -5.4749088064  MEMB      116             0.0000000000
     15458       122  POPC      H9X            24.0119207093      -19.0698567661       -5.3799318160  MEMB      116             0.0000000000
     15459       122  POPC      H9Y            24.9759659118      -17.6630123982       -4.9504507246  MEMB      116             0.0000000000
     15460       122  POPC      C310           26.0767494843      -19.4254538492       -4.6217019741  MEMB      116             0.0000000000
     15461       122  POPC      H10X           26.5636618955      -20.2038918728       -5.2472185842  MEMB      116             0.0000000000
     15462       122  POPC      H10Y           25.4773112608      -19.9364654918       -3.8382083996  MEMB      116             0.0000000000
     15463       122  POPC      C311           27.1849066527      -18.5617876363       -3.9862092753  MEMB      116             0.0000000000
     15464       122  POPC      H11X           27.6780927154      -17.8406136259       -4.6725011456  MEMB      116             0.0000000000
     15465       122  POPC      H11Y           27.9631414728      -19.3083634508       -3.7191961708  MEMB      116             0.0000000000
     15466       122  POPC      C312           26.7040710739      -17.7196794173       -2.7491542706  MEMB      116             0.0000000000
     15467       122  POPC      H12X           25.6130087186      -17.5113063828       -2.7711730169  MEMB      116             0.0000000000
     15468       122  POPC      H12Y           27.3397409178      -16.8320901629       -2.5431676515  MEMB      116             0.0000000000
     15469       122  POPC      C313           26.7733448947      -18.4699571827       -1.3783554487  MEMB      116             0.0000000000
     15470       122  POPC      H13X           27.8567273910      -18.6856376313       -1.2596756364  MEMB      116             0.0000000000
     15471       122  POPC      H13Y           26.3145675961      -19.4760134282       -1.4865001958  MEMB      116             0.0000000000
     15472       122  POPC      C314           26.1657938633      -17.7966985006       -0.1096424229  MEMB      116             0.0000000000
     15473       122  POPC      H14X           26.4244062370      -16.7162397429       -0.1026067208  MEMB      116             0.0000000000
     15474       122  POPC      H14Y           26.4969154431      -18.3745941702        0.7795805440  MEMB      116             0.0000000000
     15475       122  POPC      C315           24.5924432494      -17.8451748932        0.0216364534  MEMB      116             0.0000000000
     15476       122  POPC      H15X           24.1455327166      -17.0645013774       -0.6303917872  MEMB      116             0.0000000000
     15477       122  POPC      H15Y           24.3630305756      -17.4716389439        1.0425007537  MEMB      116             0.0000000000
     15478       122  POPC      C316           23.9345336794      -19.2013286028       -0.1119708311  MEMB      116             0.0000000000
     15479       122  POPC      H16X           22.8643744908      -19.0402605825        0.1393000749  MEMB      116             0.0000000000
     15480       122  POPC      H16Y           24.3705444599      -19.8988824676        0.6347788808  MEMB      116             0.0000000000
     15481       122  POPC      H16Z           24.0293910727      -19.5641480843       -1.1577649054  MEMB      116             0.0000000000
     15482       123  POPC      N             -13.6165742432      -31.9153544346      -20.8028654429  MEMB      117             0.0000000000
     15483       123  POPC      C12           -12.2536284583      -31.2007630266      -20.8230164911  MEMB      117             0.0000000000
     15484       123  POPC      H12A          -12.1704743615      -30.6598041294      -21.7540636907  MEMB      117             0.0000000000
     15485       123  POPC      H12B          -11.4912585645      -31.9551180496      -20.9500620867  MEMB      117             0.0000000000
     15486       123  POPC      C13           -13.6576709027      -32.9078463223      -19.6562961110  MEMB      117             0.0000000000
     15487       123  POPC      H13A          -13.3816088758      -32.3584940915      -18.7683761560  MEMB      117             0.0000000000
     15488       123  POPC      H13B          -14.6643120867      -33.2729960316      -19.5158007441  MEMB      117             0.0000000000
     15489       123  POPC      H13C          -12.9853745002      -33.6679259785      -20.0260207206  MEMB      117             0.0000000000
     15490       123  POPC      C14           -14.7122215257      -30.8961711673      -20.5913715300  MEMB      117             0.0000000000
     15491       123  POPC      H14A          -14.4636574429      -30.1193991368      -19.8833877829  MEMB      117             0.0000000000
     15492       123  POPC      H14B          -14.8881223866      -30.4165715776      -21.5429193374  MEMB      117             0.0000000000
     15493       123  POPC      H14C          -15.6147187338      -31.4272542086      -20.3270804950  MEMB      117             0.0000000000
     15494       123  POPC      C15           -13.7569827686      -32.7132041270      -22.1481777645  MEMB      117             0.0000000000
     15495       123  POPC      H15A          -13.8142383064      -31.9810480319      -22.9400547275  MEMB      117             0.0000000000
     15496       123  POPC      H15B          -14.6675251262      -33.2907702550      -22.2092494728  MEMB      117             0.0000000000
     15497       123  POPC      H15C          -12.8850291968      -33.3348117938      -22.2885381502  MEMB      117             0.0000000000
     15498       123  POPC      C11           -11.9115626220      -30.2966515585      -19.5905327841  MEMB      117             0.0000000000
     15499       123  POPC      H11A          -12.7476310004      -29.7321765958      -19.1250453098  MEMB      117             0.0000000000
     15500       123  POPC      H11B          -11.0241720623      -29.6496185288      -19.7584823283  MEMB      117             0.0000000000
     15501       123  POPC      P             -11.1851788991      -30.9233079039      -17.0674577361  MEMB      117             0.0000000000
     15502       123  POPC      O13           -11.1753585502      -29.4465435965      -16.7591734539  MEMB      117             0.0000000000
     15503       123  POPC      O14            -9.9558051841      -31.6051019904      -16.6951195851  MEMB      117             0.0000000000
     15504       123  POPC      O12           -11.4985718361      -31.2298862654      -18.5747733611  MEMB      117             0.0000000000
     15505       123  POPC      O11           -12.3883957134      -31.6759326024      -16.2912157833  MEMB      117             0.0000000000
     15506       123  POPC      C1            -13.5901446239      -31.0672181723      -15.8648324748  MEMB      117             0.0000000000
     15507       123  POPC      HA            -14.3997501721      -31.6409466344      -16.3645279611  MEMB      117             0.0000000000
     15508       123  POPC      HB            -13.6368807896      -30.0204909250      -16.2342899230  MEMB      117             0.0000000000
     15509       123  POPC      C2            -13.6791390343      -31.3008811423      -14.4333074469  MEMB      117             0.0000000000
     15510       123  POPC      HS            -14.5837656104      -30.8541937878      -13.9680745042  MEMB      117             0.0000000000
     15511       123  POPC      O21           -12.5076064338      -30.7782167150      -13.8686669129  MEMB      117             0.0000000000
     15512       123  POPC      C21           -12.5966104457      -29.5121398488      -13.4732647799  MEMB      117             0.0000000000
     15513       123  POPC      O22           -13.5682740387      -28.8354200648      -13.6219205896  MEMB      117             0.0000000000
     15514       123  POPC      C22           -11.2855666751      -28.9602304138      -12.9099987613  MEMB      117             0.0000000000
     15515       123  POPC      H2R           -10.7240111929      -28.3901314118      -13.6806892443  MEMB      117             0.0000000000
     15516       123  POPC      H2S           -10.6166361760      -29.7954038342      -12.6111035908  MEMB      117             0.0000000000
     15517       123  POPC      C3            -13.6678288895      -32.7851990482      -14.1786838957  MEMB      117             0.0000000000
     15518       123  POPC      HX            -12.8572020918      -33.3151213862      -14.7230984379  MEMB      117             0.0000000000
     15519       123  POPC      HY            -14.6150012817      -33.1138007508      -14.6574391307  MEMB      117             0.0000000000
     15520       123  POPC      O31           -13.8344460280      -33.0355107055      -12.7293573173  MEMB      117             0.0000000000
     15521       123  POPC      C31           -12.7478903674      -33.4943777352      -12.1440298886  MEMB      117             0.0000000000
     15522       123  POPC      O32           -11.6224478507      -33.4860921162      -12.5554853733  MEMB      117             0.0000000000
     15523       123  POPC      C32           -13.1842217906      -34.2407462926      -10.7351815996  MEMB      117             0.0000000000
     15524       123  POPC      H2X           -14.0427170948      -34.8819906954      -11.0286305714  MEMB      117             0.0000000000
     15525       123  POPC      H2Y           -13.4988986634      -33.4624295852      -10.0074981795  MEMB      117             0.0000000000
     15526       123  POPC      C23           -11.5813860330      -28.1336842004      -11.7118433847  MEMB      117             0.0000000000
     15527       123  POPC      H3R           -12.2101387597      -27.3265649937      -12.1449133639  MEMB      117             0.0000000000
     15528       123  POPC      H3S           -10.6475654243      -27.5686796832      -11.5043101268  MEMB      117             0.0000000000
     15529       123  POPC      C24           -12.3214692510      -28.7453446696      -10.5191843070  MEMB      117             0.0000000000
     15530       123  POPC      H4R           -11.7204951590      -29.5725895565      -10.0846533635  MEMB      117             0.0000000000
     15531       123  POPC      H4S           -13.3171088234      -29.0341764511      -10.9186829790  MEMB      117             0.0000000000
     15532       123  POPC      C25           -12.5754132245      -27.7397538623       -9.4372113335  MEMB      117             0.0000000000
     15533       123  POPC      H5R           -13.1760189287      -26.9215030981       -9.8889411316  MEMB      117             0.0000000000
     15534       123  POPC      H5S           -11.6914394122      -27.2861567303       -8.9400590479  MEMB      117             0.0000000000
     15535       123  POPC      C26           -13.3666374714      -28.3037431111       -8.2288130720  MEMB      117             0.0000000000
     15536       123  POPC      H6R           -12.6744615281      -28.9516600849       -7.6496610347  MEMB      117             0.0000000000
     15537       123  POPC      H6S           -14.1990983834      -28.9344140505       -8.6077368140  MEMB      117             0.0000000000
     15538       123  POPC      C27           -13.9109023559      -27.1416127075       -7.3216678151  MEMB      117             0.0000000000
     15539       123  POPC      H7R           -14.7502728255      -26.6078260245       -7.8164911489  MEMB      117             0.0000000000
     15540       123  POPC      H7S           -13.0797811594      -26.4065311807       -7.2649800417  MEMB      117             0.0000000000
     15541       123  POPC      C28           -14.4356600216      -27.6776579637       -5.9473581058  MEMB      117             0.0000000000
     15542       123  POPC      H8R           -13.7229278343      -28.2197834762       -5.2897617438  MEMB      117             0.0000000000
     15543       123  POPC      H8S           -15.2014021559      -28.4467463563       -6.1849782822  MEMB      117             0.0000000000
     15544       123  POPC      C29           -15.0819490096      -26.6748437924       -4.9712221194  MEMB      117             0.0000000000
     15545       123  POPC      H91           -15.2465115579      -25.6919603526       -5.4369035233  MEMB      117             0.0000000000
     15546       123  POPC      C210          -15.4530321887      -26.7999320879       -3.7201650739  MEMB      117             0.0000000000
     15547       123  POPC      H101          -15.8575294856      -25.9156260552       -3.2059800899  MEMB      117             0.0000000000
     15548       123  POPC      C211          -15.4563253519      -28.0459145478       -2.7913734541  MEMB      117             0.0000000000
     15549       123  POPC      H11R          -14.9359148378      -28.9204590924       -3.2370933286  MEMB      117             0.0000000000
     15550       123  POPC      H11S          -16.4552629746      -28.4698709675       -2.5532440217  MEMB      117             0.0000000000
     15551       123  POPC      C212          -14.6225772142      -27.7218880724       -1.5298269679  MEMB      117             0.0000000000
     15552       123  POPC      H12R          -14.7764624544      -28.6756296422       -0.9811777696  MEMB      117             0.0000000000
     15553       123  POPC      H12S          -15.0385707297      -26.8084955123       -1.0533990704  MEMB      117             0.0000000000
     15554       123  POPC      C213          -13.1066558504      -27.4458326955       -1.9022115813  MEMB      117             0.0000000000
     15555       123  POPC      H13R          -12.6811189813      -26.6854480669       -1.2129685415  MEMB      117             0.0000000000
     15556       123  POPC      H13S          -13.0530900332      -26.9399742838       -2.8899147696  MEMB      117             0.0000000000
     15557       123  POPC      C214          -12.0744309754      -28.6107665440       -1.7357044530  MEMB      117             0.0000000000
     15558       123  POPC      H14R          -12.6939969524      -29.4051257641       -1.2672468481  MEMB      117             0.0000000000
     15559       123  POPC      H14S          -11.3077429787      -28.3274390507       -0.9832179822  MEMB      117             0.0000000000
     15560       123  POPC      C215          -11.3843052437      -29.1142300535       -2.8796191713  MEMB      117             0.0000000000
     15561       123  POPC      H15R          -11.4252449819      -28.4246827469       -3.7497738323  MEMB      117             0.0000000000
     15562       123  POPC      H15S          -11.6521963990      -30.1456234257       -3.1939165626  MEMB      117             0.0000000000
     15563       123  POPC      C216           -9.8604449348      -29.0366719874       -2.6902801966  MEMB      117             0.0000000000
     15564       123  POPC      H16R           -9.6150017423      -28.0977570763       -2.1494325481  MEMB      117             0.0000000000
     15565       123  POPC      H16S           -9.2773923357      -29.0256447015       -3.6359276750  MEMB      117             0.0000000000
     15566       123  POPC      C217           -9.4377839303      -30.1367617129       -1.6709545474  MEMB      117             0.0000000000
     15567       123  POPC      H17R          -10.2420672273      -30.9030469200       -1.6869712570  MEMB      117             0.0000000000
     15568       123  POPC      H17S           -9.4260376465      -29.7175500873       -0.6421472452  MEMB      117             0.0000000000
     15569       123  POPC      C218           -8.0728166975      -30.8029410761       -1.8907705494  MEMB      117             0.0000000000
     15570       123  POPC      H18R           -8.0160246317      -31.2259026432       -2.9165388870  MEMB      117             0.0000000000
     15571       123  POPC      H18S           -7.8953019158      -31.6808052242       -1.2333797946  MEMB      117             0.0000000000
     15572       123  POPC      H18T           -7.2889750877      -30.0336667177       -1.7230497599  MEMB      117             0.0000000000
     15573       123  POPC      C33           -11.9187904822      -34.9934288833      -10.1639481181  MEMB      117             0.0000000000
     15574       123  POPC      H3X           -10.9839949285      -34.4056385730      -10.2863430970  MEMB      117             0.0000000000
     15575       123  POPC      H3Y           -11.6908204567      -35.8849262369      -10.7865098194  MEMB      117             0.0000000000
     15576       123  POPC      C34           -12.1155130308      -35.3105015734       -8.6726578421  MEMB      117             0.0000000000
     15577       123  POPC      H4X           -11.9241624235      -36.4043051713       -8.6366015024  MEMB      117             0.0000000000
     15578       123  POPC      H4Y           -13.1665697253      -35.1327691415       -8.3595898611  MEMB      117             0.0000000000
     15579       123  POPC      C35           -11.3885690669      -34.5930847485       -7.5460728236  MEMB      117             0.0000000000
     15580       123  POPC      H5X           -10.4702563943      -34.0536516570       -7.8623556583  MEMB      117             0.0000000000
     15581       123  POPC      H5Y           -10.9178352865      -35.3423938994       -6.8743089771  MEMB      117             0.0000000000
     15582       123  POPC      C36           -12.3590962672      -33.5903953275       -6.8659288216  MEMB      117             0.0000000000
     15583       123  POPC      H6X           -13.2644889657      -34.0408716107       -6.4058677294  MEMB      117             0.0000000000
     15584       123  POPC      H6Y           -12.7105328618      -32.8022212067       -7.5656396216  MEMB      117             0.0000000000
     15585       123  POPC      C37           -11.6474261179      -32.8856696554       -5.7063677514  MEMB      117             0.0000000000
     15586       123  POPC      H7X           -12.4062935662      -32.1507082265       -5.3624596984  MEMB      117             0.0000000000
     15587       123  POPC      H7Y           -10.8866663932      -32.1210909099       -5.9727974709  MEMB      117             0.0000000000
     15588       123  POPC      C38           -11.1084294417      -33.7881848123       -4.5980337230  MEMB      117             0.0000000000
     15589       123  POPC      H8X           -10.4923365642      -33.1119093773       -3.9676355983  MEMB      117             0.0000000000
     15590       123  POPC      H8Y           -10.3226088429      -34.4379321902       -5.0392082309  MEMB      117             0.0000000000
     15591       123  POPC      C39           -12.1196941126      -34.4423859301       -3.6409346223  MEMB      117             0.0000000000
     15592       123  POPC      H9X           -11.5932342471      -35.0415317904       -2.8675103996  MEMB      117             0.0000000000
     15593       123  POPC      H9Y           -12.7657732308      -35.1154927198       -4.2441174724  MEMB      117             0.0000000000
     15594       123  POPC      C310          -12.9187217608      -33.4340132309       -2.8160108545  MEMB      117             0.0000000000
     15595       123  POPC      H10X          -13.6501105314      -32.8390783190       -3.4037562964  MEMB      117             0.0000000000
     15596       123  POPC      H10Y          -12.2191096613      -32.6787751747       -2.3983029949  MEMB      117             0.0000000000
     15597       123  POPC      C311          -13.8248287633      -34.0779008685       -1.7025459359  MEMB      117             0.0000000000
     15598       123  POPC      H11X          -13.1105336235      -34.5981200651       -1.0291399378  MEMB      117             0.0000000000
     15599       123  POPC      H11Y          -14.5120884823      -34.8240198650       -2.1556487743  MEMB      117             0.0000000000
     15600       123  POPC      C312          -14.6536325241      -33.1239832539       -0.9018883126  MEMB      117             0.0000000000
     15601       123  POPC      H12X          -15.2955555149      -33.7059747907       -0.2065170743  MEMB      117             0.0000000000
     15602       123  POPC      H12Y          -15.4710834775      -32.6144019415       -1.4554416169  MEMB      117             0.0000000000
     15603       123  POPC      C313          -14.0071744183      -32.0838441756       -0.0186439222  MEMB      117             0.0000000000
     15604       123  POPC      H13X          -14.8786707100      -31.4011330891        0.0747416257  MEMB      117             0.0000000000
     15605       123  POPC      H13Y          -13.2856672243      -31.5088538311       -0.6376231254  MEMB      117             0.0000000000
     15606       123  POPC      C314          -13.4968882394      -32.4453963901        1.4018388716  MEMB      117             0.0000000000
     15607       123  POPC      H14X          -12.7291506985      -33.2182950361        1.1838302872  MEMB      117             0.0000000000
     15608       123  POPC      H14Y          -14.3379531847      -32.9094438998        1.9600407435  MEMB      117             0.0000000000
     15609       123  POPC      C315          -13.0343948304      -31.2417044490        2.2546775827  MEMB      117             0.0000000000
     15610       123  POPC      H15X          -13.9940831855      -30.8239176969        2.6272020292  MEMB      117             0.0000000000
     15611       123  POPC      H15Y          -12.5096286190      -30.4862486153        1.6315994733  MEMB      117             0.0000000000
     15612       123  POPC      C316          -12.0850063391      -31.6318716590        3.3623867826  MEMB      117             0.0000000000
     15613       123  POPC      H16X          -11.2817850583      -32.2154297712        2.8637726560  MEMB      117             0.0000000000
     15614       123  POPC      H16Y          -12.5487567618      -32.3521641131        4.0698007868  MEMB      117             0.0000000000
     15615       123  POPC      H16Z          -11.7241887666      -30.7385737087        3.9156957315  MEMB      117             0.0000000000
     15616       124  POPS      N             -26.4301431924      -20.6210850569      -21.0368831803  MEMB      118             0.0000000000
     15617       124  POPS      HN1           -27.2941539162      -20.2905629529      -21.5121102092  MEMB      118             0.0000000000
     15618       124  POPS      HN2           -25.6725085925      -19.9421982418      -21.2529904597  MEMB      118             0.0000000000
     15619       124  POPS      HN3           -26.2613953212      -21.5730126948      -21.4202341517  MEMB      118             0.0000000000
     15620       124  POPS      C12           -26.4601110725      -20.6337045479      -19.5220637663  MEMB      118             0.0000000000
     15621       124  POPS      H12A          -27.0912177873      -21.4509364171      -19.2054624169  MEMB      118             0.0000000000
     15622       124  POPS      C13           -26.9448650702      -19.2701826906      -18.9135098090  MEMB      118             0.0000000000
     15623       124  POPS      O13A          -27.0396085421      -18.1840177834      -19.5253463790  MEMB      118             0.0000000000
     15624       124  POPS      O13B          -27.2269447813      -19.3535320547      -17.6305764777  MEMB      118             0.0000000000
     15625       124  POPS      C11           -25.0940990484      -20.8845229798      -18.8383546489  MEMB      118             0.0000000000
     15626       124  POPS      H11A          -25.1434935286      -20.7559302721      -17.7359276750  MEMB      118             0.0000000000
     15627       124  POPS      H11B          -24.3853695848      -20.1169588265      -19.2163346875  MEMB      118             0.0000000000
     15628       124  POPS      P             -25.0633747853      -23.4990547131      -18.7116938625  MEMB      118             0.0000000000
     15629       124  POPS      O13           -24.0563104489      -24.4675972459      -19.2025101125  MEMB      118             0.0000000000
     15630       124  POPS      O14           -26.4437681616      -23.7598372542      -19.1689585416  MEMB      118             0.0000000000
     15631       124  POPS      O12           -24.5666763555      -22.0826156514      -19.3139764488  MEMB      118             0.0000000000
     15632       124  POPS      O11           -24.9523334407      -23.3446644210      -17.1361267691  MEMB      118             0.0000000000
     15633       124  POPS      C1            -26.1723646579      -23.3098806332      -16.3200183750  MEMB      118             0.0000000000
     15634       124  POPS      HA            -26.8372010258      -24.1783986960      -16.5149287013  MEMB      118             0.0000000000
     15635       124  POPS      HB            -26.7323019167      -22.3612910749      -16.4648254047  MEMB      118             0.0000000000
     15636       124  POPS      C2            -25.7103103210      -23.3530592068      -14.8426261136  MEMB      118             0.0000000000
     15637       124  POPS      HS            -26.6628988623      -23.4705003467      -14.2830696112  MEMB      118             0.0000000000
     15638       124  POPS      O21           -24.9657984997      -22.1848234302      -14.4886513602  MEMB      118             0.0000000000
     15639       124  POPS      C21           -25.1605958693      -21.6692236257      -13.2826873783  MEMB      118             0.0000000000
     15640       124  POPS      O22           -25.9535049314      -22.0765253745      -12.4395912417  MEMB      118             0.0000000000
     15641       124  POPS      C22           -24.2157972078      -20.5765853383      -13.0366108112  MEMB      118             0.0000000000
     15642       124  POPS      H2R           -24.3886892389      -19.6260958493      -13.5852448652  MEMB      118             0.0000000000
     15643       124  POPS      H2S           -23.2066947304      -20.9103277815      -13.3601062390  MEMB      118             0.0000000000
     15644       124  POPS      C3            -24.7815394611      -24.6006191788      -14.6352249238  MEMB      118             0.0000000000
     15645       124  POPS      HX            -23.8669310651      -24.5626820755      -15.2648068228  MEMB      118             0.0000000000
     15646       124  POPS      HY            -25.3461046249      -25.4981923789      -14.9668110000  MEMB      118             0.0000000000
     15647       124  POPS      O31           -24.4489184290      -24.7362011797      -13.2604364353  MEMB      118             0.0000000000
     15648       124  POPS      C31           -23.1977421667      -24.6262557578      -12.8538266118  MEMB      118             0.0000000000
     15649       124  POPS      O32           -22.2664834100      -24.4128576408      -13.5923361383  MEMB      118             0.0000000000
     15650       124  POPS      C32           -23.2632044344      -24.6135087205      -11.3215586958  MEMB      118             0.0000000000
     15651       124  POPS      H2X           -23.3803069022      -25.6709861488      -11.0016372427  MEMB      118             0.0000000000
     15652       124  POPS      H2Y           -24.1453076951      -24.0316359248      -10.9785740109  MEMB      118             0.0000000000
     15653       124  POPS      C23           -23.9666217827      -20.1747948585      -11.5351230034  MEMB      118             0.0000000000
     15654       124  POPS      H3R           -23.0658088757      -19.5281040580      -11.4669437515  MEMB      118             0.0000000000
     15655       124  POPS      H3S           -23.8335348217      -21.1259196346      -10.9765793569  MEMB      118             0.0000000000
     15656       124  POPS      C24           -25.0012756098      -19.2680569430      -10.9349804935  MEMB      118             0.0000000000
     15657       124  POPS      H4R           -26.0061519047      -19.6375797428      -11.2316238957  MEMB      118             0.0000000000
     15658       124  POPS      H4S           -24.8333150519      -18.2685790354      -11.3901225572  MEMB      118             0.0000000000
     15659       124  POPS      C25           -24.9537702088      -19.4375438789       -9.4105491138  MEMB      118             0.0000000000
     15660       124  POPS      H5R           -23.8926377224      -19.4802773670       -9.0842170957  MEMB      118             0.0000000000
     15661       124  POPS      H5S           -25.5100820901      -20.3626376271       -9.1477948900  MEMB      118             0.0000000000
     15662       124  POPS      C26           -25.4476333924      -18.1810259956       -8.7159114920  MEMB      118             0.0000000000
     15663       124  POPS      H6R           -26.3147556901      -17.6932098976       -9.2103350871  MEMB      118             0.0000000000
     15664       124  POPS      H6S           -24.6924162844      -17.3682751504       -8.7742588177  MEMB      118             0.0000000000
     15665       124  POPS      C27           -25.7555823203      -18.4382089647       -7.1888862503  MEMB      118             0.0000000000
     15666       124  POPS      H7R           -26.1041188996      -17.4988715025       -6.7087933660  MEMB      118             0.0000000000
     15667       124  POPS      H7S           -24.8084672847      -18.6036857226       -6.6321893897  MEMB      118             0.0000000000
     15668       124  POPS      C28           -26.7459634116      -19.5625301705       -6.8475658836  MEMB      118             0.0000000000
     15669       124  POPS      H8R           -26.4665160959      -20.5716182616       -7.2190108815  MEMB      118             0.0000000000
     15670       124  POPS      H8S           -27.6857371493      -19.2750647513       -7.3657454257  MEMB      118             0.0000000000
     15671       124  POPS      C29           -27.0243439533      -19.8272258279       -5.3901289367  MEMB      118             0.0000000000
     15672       124  POPS      H91           -27.1183066646      -18.9180717215       -4.7780749605  MEMB      118             0.0000000000
     15673       124  POPS      C210          -27.1657297172      -21.0084160009       -4.7481867866  MEMB      118             0.0000000000
     15674       124  POPS      H101          -27.2427815828      -21.0102343122       -3.6508901132  MEMB      118             0.0000000000
     15675       124  POPS      C211          -27.0945461221      -22.3869834572       -5.2904607566  MEMB      118             0.0000000000
     15676       124  POPS      H11R          -26.8084253961      -22.5353734592       -6.3536803183  MEMB      118             0.0000000000
     15677       124  POPS      H11S          -28.0017664262      -22.9853649463       -5.0597829665  MEMB      118             0.0000000000
     15678       124  POPS      C212          -25.8966581933      -22.9936908877       -4.5021381432  MEMB      118             0.0000000000
     15679       124  POPS      H12R          -25.9629493334      -22.9391190960       -3.3944609739  MEMB      118             0.0000000000
     15680       124  POPS      H12S          -24.9436039454      -22.4749192736       -4.7406431615  MEMB      118             0.0000000000
     15681       124  POPS      C213          -25.7319772232      -24.4643142294       -5.0084056559  MEMB      118             0.0000000000
     15682       124  POPS      H13R          -26.1129883584      -24.5745451563       -6.0461920234  MEMB      118             0.0000000000
     15683       124  POPS      H13S          -26.4981061626      -25.0580172470       -4.4653731128  MEMB      118             0.0000000000
     15684       124  POPS      C214          -24.3991429529      -25.0881284353       -4.6312316151  MEMB      118             0.0000000000
     15685       124  POPS      H14R          -23.6799439164      -24.7158747763       -5.3918240853  MEMB      118             0.0000000000
     15686       124  POPS      H14S          -24.4340725688      -26.1716445842       -4.8743232739  MEMB      118             0.0000000000
     15687       124  POPS      C215          -23.8973555882      -24.9007177933       -3.1532611502  MEMB      118             0.0000000000
     15688       124  POPS      H15R          -24.4665479703      -25.4920510588       -2.4044843937  MEMB      118             0.0000000000
     15689       124  POPS      H15S          -23.8702090438      -23.8248375399       -2.8774615886  MEMB      118             0.0000000000
     15690       124  POPS      C216          -22.5429067817      -25.3135710260       -2.8502064508  MEMB      118             0.0000000000
     15691       124  POPS      H16R          -21.7980814998      -24.8551523718       -3.5353405241  MEMB      118             0.0000000000
     15692       124  POPS      H16S          -22.2270573086      -26.3576949948       -3.0608379315  MEMB      118             0.0000000000
     15693       124  POPS      C217          -22.0136823335      -24.9992239918       -1.3475618389  MEMB      118             0.0000000000
     15694       124  POPS      H17R          -22.5488073317      -25.7481160814       -0.7253697321  MEMB      118             0.0000000000
     15695       124  POPS      H17S          -22.3719778168      -23.9877253625       -1.0597836275  MEMB      118             0.0000000000
     15696       124  POPS      C218          -20.5449134143      -24.9186873180       -1.1067123316  MEMB      118             0.0000000000
     15697       124  POPS      H18R          -20.3198608371      -24.4163634110       -0.1416505593  MEMB      118             0.0000000000
     15698       124  POPS      H18S          -19.9651535709      -24.3084873472       -1.8318715989  MEMB      118             0.0000000000
     15699       124  POPS      H18T          -20.1791054669      -25.9667757067       -1.0618125892  MEMB      118             0.0000000000
     15700       124  POPS      C33           -21.9097718109      -24.1122174836      -10.7797069661  MEMB      118             0.0000000000
     15701       124  POPS      H3X           -21.4410384828      -23.2951816380      -11.3688266464  MEMB      118             0.0000000000
     15702       124  POPS      H3Y           -21.1478027012      -24.9148853548      -10.8769071553  MEMB      118             0.0000000000
     15703       124  POPS      C34           -21.9936497310      -23.7595389316       -9.2477325143  MEMB      118             0.0000000000
     15704       124  POPS      H4X           -20.9338455066      -23.5455571457       -8.9920994878  MEMB      118             0.0000000000
     15705       124  POPS      H4Y           -22.3962137171      -24.6480233571       -8.7158874521  MEMB      118             0.0000000000
     15706       124  POPS      C35           -22.9255397464      -22.5967312889       -8.8948228224  MEMB      118             0.0000000000
     15707       124  POPS      H5X           -23.9549127681      -22.7755567425       -9.2726231891  MEMB      118             0.0000000000
     15708       124  POPS      H5Y           -22.5364858623      -21.6625597745       -9.3533874951  MEMB      118             0.0000000000
     15709       124  POPS      C36           -23.1267827566      -22.4770955118       -7.3614074715  MEMB      118             0.0000000000
     15710       124  POPS      H6X           -23.6534405401      -23.3706237702       -6.9632118918  MEMB      118             0.0000000000
     15711       124  POPS      H6Y           -23.6648674962      -21.5304157699       -7.1409918454  MEMB      118             0.0000000000
     15712       124  POPS      C37           -21.8297873465      -22.4445644483       -6.5753729947  MEMB      118             0.0000000000
     15713       124  POPS      H7X           -21.2216022801      -21.6483329265       -7.0554222732  MEMB      118             0.0000000000
     15714       124  POPS      H7Y           -21.2170918638      -23.3681296722       -6.6525249057  MEMB      118             0.0000000000
     15715       124  POPS      C38           -21.9240982004      -22.0038920567       -5.1236098189  MEMB      118             0.0000000000
     15716       124  POPS      H8X           -20.9234732368      -22.0668481269       -4.6449589930  MEMB      118             0.0000000000
     15717       124  POPS      H8Y           -22.5194138077      -22.7068992636       -4.5025613719  MEMB      118             0.0000000000
     15718       124  POPS      C39           -22.4223046120      -20.5099837460       -4.9493974944  MEMB      118             0.0000000000
     15719       124  POPS      H9X           -23.4365564715      -20.3463039256       -5.3722722937  MEMB      118             0.0000000000
     15720       124  POPS      H9Y           -21.8000066722      -19.7682017809       -5.4942143758  MEMB      118             0.0000000000
     15721       124  POPS      C310          -22.4942506290      -20.0455263177       -3.5159602961  MEMB      118             0.0000000000
     15722       124  POPS      H10X          -22.0775508349      -19.0166922674       -3.4692469222  MEMB      118             0.0000000000
     15723       124  POPS      H10Y          -21.8064164387      -20.6717852927       -2.9085030391  MEMB      118             0.0000000000
     15724       124  POPS      C311          -23.8046486731      -20.2461010060       -2.7464572523  MEMB      118             0.0000000000
     15725       124  POPS      H11X          -24.0806633817      -21.2943400430       -2.9900398013  MEMB      118             0.0000000000
     15726       124  POPS      H11Y          -24.6320832009      -19.5936524716       -3.0985727131  MEMB      118             0.0000000000
     15727       124  POPS      C312          -23.6173465772      -20.0314782402       -1.2730289009  MEMB      118             0.0000000000
     15728       124  POPS      H12X          -22.8252696494      -19.2683464181       -1.1162968200  MEMB      118             0.0000000000
     15729       124  POPS      H12Y          -23.1159581444      -20.8960527195       -0.7878046997  MEMB      118             0.0000000000
     15730       124  POPS      C313          -24.9328948814      -19.7222933324       -0.4753836866  MEMB      118             0.0000000000
     15731       124  POPS      H13X          -25.6625579044      -20.4636665030       -0.8656115494  MEMB      118             0.0000000000
     15732       124  POPS      H13Y          -25.3878508944      -18.7140616333       -0.5793308066  MEMB      118             0.0000000000
     15733       124  POPS      C314          -24.7499676538      -19.8311756974        1.1113622683  MEMB      118             0.0000000000
     15734       124  POPS      H14X          -24.0973529585      -18.9991632383        1.4522012577  MEMB      118             0.0000000000
     15735       124  POPS      H14Y          -24.2170094576      -20.7915879264        1.2783517522  MEMB      118             0.0000000000
     15736       124  POPS      C315          -26.1100997362      -19.8842633040        1.8542279461  MEMB      118             0.0000000000
     15737       124  POPS      H15X          -26.7237023753      -19.0807408122        1.3936146657  MEMB      118             0.0000000000
     15738       124  POPS      H15Y          -25.8996278503      -19.4445968148        2.8525844613  MEMB      118             0.0000000000
     15739       124  POPS      C316          -26.8703972858      -21.1820640878        1.7012756290  MEMB      118             0.0000000000
     15740       124  POPS      H16X          -26.2281673331      -21.9565702576        2.1724446543  MEMB      118             0.0000000000
     15741       124  POPS      H16Y          -27.0027295907      -21.5276146406        0.6537041729  MEMB      118             0.0000000000
     15742       124  POPS      H16Z          -27.8224521601      -21.1809610016        2.2739101453  MEMB      118             0.0000000000
     15743       125  POPC      N              32.0090907604       13.7638370893      -19.9206760171  MEMB      119             0.0000000000
     15744       125  POPC      C12            32.2478851199       14.4494975272      -18.5526589630  MEMB      119             0.0000000000
     15745       125  POPC      H12A           32.9662366205       15.2268970424      -18.7671845164  MEMB      119             0.0000000000
     15746       125  POPC      H12B           32.8699945912       13.8017520200      -17.9528213147  MEMB      119             0.0000000000
     15747       125  POPC      C13            33.3200094277       13.1957544354      -20.3510163078  MEMB      119             0.0000000000
     15748       125  POPC      H13A           33.7964037006       12.5233325242      -19.6529493747  MEMB      119             0.0000000000
     15749       125  POPC      H13B           33.2385921383       12.6181731885      -21.2599558590  MEMB      119             0.0000000000
     15750       125  POPC      H13C           34.0678442447       13.9648994520      -20.4757527285  MEMB      119             0.0000000000
     15751       125  POPC      C14            30.9798329012       12.6215324971      -19.7435545462  MEMB      119             0.0000000000
     15752       125  POPC      H14A           30.0241346823       13.0873977475      -19.5537905195  MEMB      119             0.0000000000
     15753       125  POPC      H14B           30.9880722400       12.0701488750      -20.6721599621  MEMB      119             0.0000000000
     15754       125  POPC      H14C           31.4276111179       12.0164860080      -18.9690782470  MEMB      119             0.0000000000
     15755       125  POPC      C15            31.5186457021       14.8467181970      -20.8774479094  MEMB      119             0.0000000000
     15756       125  POPC      H15A           32.2649768699       15.6245049179      -20.9440628632  MEMB      119             0.0000000000
     15757       125  POPC      H15B           30.5303200800       15.1404195539      -20.5559638087  MEMB      119             0.0000000000
     15758       125  POPC      H15C           31.4340584064       14.3640666772      -21.8398886844  MEMB      119             0.0000000000
     15759       125  POPC      C11            31.1180974556       15.0502432451      -17.6544648487  MEMB      119             0.0000000000
     15760       125  POPC      H11A           31.5449435737       15.6249467384      -16.8048534622  MEMB      119             0.0000000000
     15761       125  POPC      H11B           30.6504494945       14.1574138407      -17.1870441981  MEMB      119             0.0000000000
     15762       125  POPC      P              30.3582522856       17.4361721848      -18.4206420484  MEMB      119             0.0000000000
     15763       125  POPC      O13            29.6256850758       17.8758461563      -19.5914717387  MEMB      119             0.0000000000
     15764       125  POPC      O14            31.7440894612       17.7850849942      -18.2699377510  MEMB      119             0.0000000000
     15765       125  POPC      O12            30.2835250170       15.8533372781      -18.4844944185  MEMB      119             0.0000000000
     15766       125  POPC      O11            29.5038468424       17.6982891928      -17.1336354529  MEMB      119             0.0000000000
     15767       125  POPC      C1             29.7768656820       18.9049145731      -16.3935746355  MEMB      119             0.0000000000
     15768       125  POPC      HA             28.7875526653       19.4035006940      -16.3099514460  MEMB      119             0.0000000000
     15769       125  POPC      HB             30.4736197479       19.5789631664      -16.9362657938  MEMB      119             0.0000000000
     15770       125  POPC      C2             30.0661482342       18.5301126309      -15.0323280448  MEMB      119             0.0000000000
     15771       125  POPC      HS             30.1652652051       19.4251944498      -14.3816935784  MEMB      119             0.0000000000
     15772       125  POPC      O21            31.2981993783       17.7772147085      -14.8266700780  MEMB      119             0.0000000000
     15773       125  POPC      C21            32.4145085640       18.2818295901      -15.2939075155  MEMB      119             0.0000000000
     15774       125  POPC      O22            32.6295768330       19.4775519339      -15.5205969398  MEMB      119             0.0000000000
     15775       125  POPC      C22            33.4763626454       17.1632106245      -15.3146658875  MEMB      119             0.0000000000
     15776       125  POPC      H2R            33.6650880193       16.8651146116      -16.3681565738  MEMB      119             0.0000000000
     15777       125  POPC      H2S            33.0086537557       16.2748325534      -14.8388993854  MEMB      119             0.0000000000
     15778       125  POPC      C3             28.9874397797       17.6288754239      -14.3495313617  MEMB      119             0.0000000000
     15779       125  POPC      HX             29.0019107956       16.6123904474      -14.7977164288  MEMB      119             0.0000000000
     15780       125  POPC      HY             28.0565853659       18.1896689173      -14.5804898474  MEMB      119             0.0000000000
     15781       125  POPC      O31            29.2780721273       17.5558161991      -12.9110290435  MEMB      119             0.0000000000
     15782       125  POPC      C31            29.8010770913       16.4464338250      -12.3668780570  MEMB      119             0.0000000000
     15783       125  POPC      O32            30.2090722810       15.4489884436      -12.9609939382  MEMB      119             0.0000000000
     15784       125  POPC      C32            29.8962844367       16.7613691454      -10.8877612853  MEMB      119             0.0000000000
     15785       125  POPC      H2X            29.2781954888       17.6487016882      -10.6329512224  MEMB      119             0.0000000000
     15786       125  POPC      H2Y            30.9210045399       17.1492594620      -10.7038836420  MEMB      119             0.0000000000
     15787       125  POPC      C23            34.8678380734       17.5766804878      -14.5991825332  MEMB      119             0.0000000000
     15788       125  POPC      H3R            34.8942611831       18.6871657630      -14.6202847039  MEMB      119             0.0000000000
     15789       125  POPC      H3S            35.7554526813       17.2714696607      -15.1935792603  MEMB      119             0.0000000000
     15790       125  POPC      C24            34.9606151344       17.1181370310      -13.1343559466  MEMB      119             0.0000000000
     15791       125  POPC      H4R            35.9248471112       17.4101781280      -12.6660728194  MEMB      119             0.0000000000
     15792       125  POPC      H4S            35.0001241624       16.0082325954      -13.1048251653  MEMB      119             0.0000000000
     15793       125  POPC      C25            33.7645667677       17.6183458133      -12.3679903984  MEMB      119             0.0000000000
     15794       125  POPC      H5R            32.9786029746       16.8758923570      -12.6236162667  MEMB      119             0.0000000000
     15795       125  POPC      H5S            33.5075510649       18.6485294452      -12.6950767526  MEMB      119             0.0000000000
     15796       125  POPC      C26            33.8045173031       17.4794827396      -10.9030281449  MEMB      119             0.0000000000
     15797       125  POPC      H6R            33.5471276550       16.5489825393      -10.3532640114  MEMB      119             0.0000000000
     15798       125  POPC      H6S            32.9825837034       18.1364126373      -10.5463918492  MEMB      119             0.0000000000
     15799       125  POPC      C27            35.1165285764       18.0081541837      -10.2480134637  MEMB      119             0.0000000000
     15800       125  POPC      H7R            35.6120150161       18.6845280378      -10.9769395408  MEMB      119             0.0000000000
     15801       125  POPC      H7S            35.7597987176       17.1026973164      -10.2220839769  MEMB      119             0.0000000000
     15802       125  POPC      C28            34.9336330055       18.6713427093       -8.9133829504  MEMB      119             0.0000000000
     15803       125  POPC      H8R            35.9693332497       18.9663156584       -8.6401857583  MEMB      119             0.0000000000
     15804       125  POPC      H8S            34.8047360205       17.8289034484       -8.2006402199  MEMB      119             0.0000000000
     15805       125  POPC      C29            34.1326019814       19.9012977521       -8.8829745314  MEMB      119             0.0000000000
     15806       125  POPC      H91            34.5961767576       20.6844598120       -9.5008375566  MEMB      119             0.0000000000
     15807       125  POPC      C210           33.0418351398       20.1726550694       -8.1214075616  MEMB      119             0.0000000000
     15808       125  POPC      H101           32.6348204723       21.1942492191       -8.0952484763  MEMB      119             0.0000000000
     15809       125  POPC      C211           32.3482850771       19.2338631110       -7.1249437626  MEMB      119             0.0000000000
     15810       125  POPC      H11R           32.9215068053       18.2931846661       -6.9805072821  MEMB      119             0.0000000000
     15811       125  POPC      H11S           31.4736109844       18.8570510732       -7.6970264703  MEMB      119             0.0000000000
     15812       125  POPC      C212           31.8322285900       19.8794963879       -5.8806174423  MEMB      119             0.0000000000
     15813       125  POPC      H12R           31.2334334122       20.8043318470       -6.0236022853  MEMB      119             0.0000000000
     15814       125  POPC      H12S           32.7238691633       20.1495170990       -5.2753180268  MEMB      119             0.0000000000
     15815       125  POPC      C213           30.9466184313       18.8831307280       -5.1504238806  MEMB      119             0.0000000000
     15816       125  POPC      H13R           31.6280630395       18.0400622180       -4.9071340204  MEMB      119             0.0000000000
     15817       125  POPC      H13S           30.1440307347       18.4121767827       -5.7573639712  MEMB      119             0.0000000000
     15818       125  POPC      C214           30.1494319698       19.4262802577       -3.9559461970  MEMB      119             0.0000000000
     15819       125  POPC      H14R           29.5080608946       18.5273213518       -3.8341373480  MEMB      119             0.0000000000
     15820       125  POPC      H14S           29.5723493791       20.3146774260       -4.2906794677  MEMB      119             0.0000000000
     15821       125  POPC      C215           31.1397734608       19.8027750495       -2.8509876734  MEMB      119             0.0000000000
     15822       125  POPC      H15R           31.6974906279       20.7172476207       -3.1459663509  MEMB      119             0.0000000000
     15823       125  POPC      H15S           31.8875773637       19.0210394284       -2.5980060591  MEMB      119             0.0000000000
     15824       125  POPC      C216           30.4495675172       20.1219308059       -1.4722414670  MEMB      119             0.0000000000
     15825       125  POPC      H16R           29.7663457522       20.9711982679       -1.6873543204  MEMB      119             0.0000000000
     15826       125  POPC      H16S           31.1231241760       20.5944054326       -0.7256417391  MEMB      119             0.0000000000
     15827       125  POPC      C217           29.5597228569       19.1077283544       -0.7935795174  MEMB      119             0.0000000000
     15828       125  POPC      H17R           28.6353546834       18.9740046636       -1.3952286111  MEMB      119             0.0000000000
     15829       125  POPC      H17S           29.2070673261       19.5627878876        0.1566197707  MEMB      119             0.0000000000
     15830       125  POPC      C218           30.2635230666       17.8137651534       -0.5169461166  MEMB      119             0.0000000000
     15831       125  POPC      H18R           29.5083374615       17.0566827438       -0.2155470959  MEMB      119             0.0000000000
     15832       125  POPC      H18S           30.9348224368       17.8993004153        0.3641678052  MEMB      119             0.0000000000
     15833       125  POPC      H18T           30.8333884831       17.4406518373       -1.3946480629  MEMB      119             0.0000000000
     15834       125  POPC      C33            29.5570067914       15.6539474177       -9.9208365398  MEMB      119             0.0000000000
     15835       125  POPC      H3X            29.8665424971       16.0716520683       -8.9389857095  MEMB      119             0.0000000000
     15836       125  POPC      H3Y            30.2350594387       14.7848234482      -10.0593614018  MEMB      119             0.0000000000
     15837       125  POPC      C34            28.0966134914       15.1083990478       -9.8511493423  MEMB      119             0.0000000000
     15838       125  POPC      H4X            28.1913265665       14.1068734426       -9.3796653598  MEMB      119             0.0000000000
     15839       125  POPC      H4Y            27.7290671619       15.0301300091      -10.8966654587  MEMB      119             0.0000000000
     15840       125  POPC      C35            27.1037941484       15.9432056546       -9.0245295007  MEMB      119             0.0000000000
     15841       125  POPC      H5X            26.1598939472       15.3575257754       -9.0057566126  MEMB      119             0.0000000000
     15842       125  POPC      H5Y            26.9802808558       16.8988179194       -9.5775853989  MEMB      119             0.0000000000
     15843       125  POPC      C36            27.5494664259       16.3301881334       -7.6195238802  MEMB      119             0.0000000000
     15844       125  POPC      H6X            26.7297237814       16.9010679039       -7.1332733075  MEMB      119             0.0000000000
     15845       125  POPC      H6Y            28.4911077391       16.9197865427       -7.6220170483  MEMB      119             0.0000000000
     15846       125  POPC      C37            27.6287158758       15.1211952657       -6.6307814114  MEMB      119             0.0000000000
     15847       125  POPC      H7X            28.4168866869       14.4730470969       -7.0701124556  MEMB      119             0.0000000000
     15848       125  POPC      H7Y            26.7561490617       14.4425227057       -6.7419191947  MEMB      119             0.0000000000
     15849       125  POPC      C38            27.8815787226       15.4422206878       -5.1648239613  MEMB      119             0.0000000000
     15850       125  POPC      H8X            27.1899653563       16.2414000990       -4.8223276323  MEMB      119             0.0000000000
     15851       125  POPC      H8Y            28.8893371883       15.8608644160       -4.9563030366  MEMB      119             0.0000000000
     15852       125  POPC      C39            27.7664330383       14.1633391764       -4.2615261545  MEMB      119             0.0000000000
     15853       125  POPC      H9X            28.6150709144       13.5093742576       -4.5555747518  MEMB      119             0.0000000000
     15854       125  POPC      H9Y            26.7504460342       13.7464699198       -4.4297857436  MEMB      119             0.0000000000
     15855       125  POPC      C310           27.8644016026       14.3592624459       -2.7133714810  MEMB      119             0.0000000000
     15856       125  POPC      H10X           27.5157036609       13.4610899773       -2.1601836013  MEMB      119             0.0000000000
     15857       125  POPC      H10Y           27.2907024544       15.2309731451       -2.3321759929  MEMB      119             0.0000000000
     15858       125  POPC      C311           29.3154478855       14.4093939351       -2.2562648020  MEMB      119             0.0000000000
     15859       125  POPC      H11X           29.3824957731       14.9656558321       -1.2968907047  MEMB      119             0.0000000000
     15860       125  POPC      H11Y           29.9562332868       14.8483922524       -3.0506169533  MEMB      119             0.0000000000
     15861       125  POPC      C312           29.8005847764       12.9444238220       -1.8596256500  MEMB      119             0.0000000000
     15862       125  POPC      H12X           29.5602624889       12.2123843937       -2.6600542003  MEMB      119             0.0000000000
     15863       125  POPC      H12Y           29.1928202652       12.6495954392       -0.9775716288  MEMB      119             0.0000000000
     15864       125  POPC      C313           31.3425065457       12.9399383490       -1.6075983037  MEMB      119             0.0000000000
     15865       125  POPC      H13X           31.8960004673       13.1648675861       -2.5442809103  MEMB      119             0.0000000000
     15866       125  POPC      H13Y           31.6133477794       11.8694448778       -1.4850846350  MEMB      119             0.0000000000
     15867       125  POPC      C314           31.8906602810       13.5614651639       -0.3046390105  MEMB      119             0.0000000000
     15868       125  POPC      H14X           31.2011584598       13.1631220641        0.4701065566  MEMB      119             0.0000000000
     15869       125  POPC      H14Y           31.7049649340       14.6563969136       -0.3356630089  MEMB      119             0.0000000000
     15870       125  POPC      C315           33.3466685225       13.3701923521        0.1208778802  MEMB      119             0.0000000000
     15871       125  POPC      H15X           33.5743911506       12.2921328000       -0.0214267316  MEMB      119             0.0000000000
     15872       125  POPC      H15Y           33.4315124464       13.5729418142        1.2099212462  MEMB      119             0.0000000000
     15873       125  POPC      C316           34.4789161280       14.1971382036       -0.4660878295  MEMB      119             0.0000000000
     15874       125  POPC      H16X           34.5076995704       15.2532989397       -0.1225534510  MEMB      119             0.0000000000
     15875       125  POPC      H16Y           34.3206563330       14.1789684919       -1.5656089751  MEMB      119             0.0000000000
     15876       125  POPC      H16Z           35.5353170707       13.8872480796       -0.3167353140  MEMB      119             0.0000000000
     15877       126  POPC      N             -30.0347899255       19.7740922802      -19.5997880674  MEMB      120             0.0000000000
     15878       126  POPC      C12           -28.8009820195       19.5642221216      -18.7486341340  MEMB      120             0.0000000000
     15879       126  POPC      H12A          -28.3980496962       20.4427510022      -18.2667288384  MEMB      120             0.0000000000
     15880       126  POPC      H12B          -28.0191065823       19.5575004721      -19.4936345710  MEMB      120             0.0000000000
     15881       126  POPC      C13           -31.1847959614       20.0727788383      -18.7020077100  MEMB      120             0.0000000000
     15882       126  POPC      H13A          -30.7405908607       20.8071401667      -18.0464199531  MEMB      120             0.0000000000
     15883       126  POPC      H13B          -32.0342505579       20.4475571402      -19.2537036138  MEMB      120             0.0000000000
     15884       126  POPC      H13C          -31.3523658294       19.2191476226      -18.0619809794  MEMB      120             0.0000000000
     15885       126  POPC      C14           -29.6425698773       20.8568158724      -20.5838088924  MEMB      120             0.0000000000
     15886       126  POPC      H14A          -29.3485872408       21.7557782678      -20.0624250730  MEMB      120             0.0000000000
     15887       126  POPC      H14B          -28.7623780566       20.4935971206      -21.0934506184  MEMB      120             0.0000000000
     15888       126  POPC      H14C          -30.4965518653       21.0185899406      -21.2248576655  MEMB      120             0.0000000000
     15889       126  POPC      C15           -30.2176135682       18.4895251988      -20.3902862475  MEMB      120             0.0000000000
     15890       126  POPC      H15A          -30.9435192879       18.6170015245      -21.1797231463  MEMB      120             0.0000000000
     15891       126  POPC      H15B          -30.5813243262       17.8266775475      -19.6190875497  MEMB      120             0.0000000000
     15892       126  POPC      H15C          -29.2391982432       18.1138594140      -20.6510137145  MEMB      120             0.0000000000
     15893       126  POPC      C11           -28.6003104086       18.2332464183      -17.9362022676  MEMB      120             0.0000000000
     15894       126  POPC      H11A          -29.5531252005       18.0295956862      -17.4023564224  MEMB      120             0.0000000000
     15895       126  POPC      H11B          -27.7975826975       18.4223709217      -17.1917688534  MEMB      120             0.0000000000
     15896       126  POPC      P             -26.8484716195       16.4278991777      -18.6875396876  MEMB      120             0.0000000000
     15897       126  POPC      O13           -25.9539795061       17.1566894132      -19.5565469262  MEMB      120             0.0000000000
     15898       126  POPC      O14           -26.9793869590       14.9578322590      -18.8557067524  MEMB      120             0.0000000000
     15899       126  POPC      O12           -28.3020387973       17.0561082563      -18.7451580645  MEMB      120             0.0000000000
     15900       126  POPC      O11           -26.2356527545       16.6236655654      -17.1943212510  MEMB      120             0.0000000000
     15901       126  POPC      C1            -26.3439544792       15.4015552216      -16.4185101704  MEMB      120             0.0000000000
     15902       126  POPC      HA            -25.6823272606       15.4554283320      -15.5276296079  MEMB      120             0.0000000000
     15903       126  POPC      HB            -25.8934960549       14.5264526223      -16.9338777227  MEMB      120             0.0000000000
     15904       126  POPC      C2            -27.7699776130       15.2226026049      -15.8571196817  MEMB      120             0.0000000000
     15905       126  POPC      HS            -28.4540708725       15.1429567155      -16.7288960607  MEMB      120             0.0000000000
     15906       126  POPC      O21           -28.0415639704       16.3581793499      -15.0301791682  MEMB      120             0.0000000000
     15907       126  POPC      C21           -29.3268806402       16.6390677780      -14.8259235637  MEMB      120             0.0000000000
     15908       126  POPC      O22           -30.2842269090       16.0092341637      -15.2101930638  MEMB      120             0.0000000000
     15909       126  POPC      C22           -29.4233903754       18.0556696233      -14.1962459722  MEMB      120             0.0000000000
     15910       126  POPC      H2R           -30.0315343969       18.0089164304      -13.2676470421  MEMB      120             0.0000000000
     15911       126  POPC      H2S           -29.8770052511       18.7392866716      -14.9453934518  MEMB      120             0.0000000000
     15912       126  POPC      C3            -27.8588573936       13.9179097486      -15.0023108425  MEMB      120             0.0000000000
     15913       126  POPC      HX            -27.5156274652       13.1472176072      -15.7251855792  MEMB      120             0.0000000000
     15914       126  POPC      HY            -28.8671085256       13.7051784907      -14.5869844375  MEMB      120             0.0000000000
     15915       126  POPC      O31           -26.9459954634       14.0465441317      -14.0051428071  MEMB      120             0.0000000000
     15916       126  POPC      C31           -27.0808071930       13.2732463311      -12.8929520836  MEMB      120             0.0000000000
     15917       126  POPC      O32           -28.0876098972       12.5950274302      -12.6676359267  MEMB      120             0.0000000000
     15918       126  POPC      C32           -25.9438805282       13.4913245608      -11.9451849401  MEMB      120             0.0000000000
     15919       126  POPC      H2X           -25.1302105807       12.7715134658      -12.1778523361  MEMB      120             0.0000000000
     15920       126  POPC      H2Y           -26.2116950288       13.1180199667      -10.9336315452  MEMB      120             0.0000000000
     15921       126  POPC      C23           -28.0112054272       18.6736941022      -13.9216087939  MEMB      120             0.0000000000
     15922       126  POPC      H3R           -27.2180237416       18.2406246816      -14.5678554046  MEMB      120             0.0000000000
     15923       126  POPC      H3S           -27.9211137922       18.2947062203      -12.8811414047  MEMB      120             0.0000000000
     15924       126  POPC      C24           -28.0171908276       20.2324603133      -13.9979721365  MEMB      120             0.0000000000
     15925       126  POPC      H4R           -28.4313427954       20.5726260721      -14.9711556396  MEMB      120             0.0000000000
     15926       126  POPC      H4S           -27.0055974079       20.6891599549      -14.0472187188  MEMB      120             0.0000000000
     15927       126  POPC      C25           -28.6160989237       20.8804209191      -12.7739128042  MEMB      120             0.0000000000
     15928       126  POPC      H5R           -29.7191270649       20.7475697512      -12.7744827192  MEMB      120             0.0000000000
     15929       126  POPC      H5S           -28.5747526134       21.9687553246      -12.9933203903  MEMB      120             0.0000000000
     15930       126  POPC      C26           -28.1363163573       20.5976824834      -11.3209719897  MEMB      120             0.0000000000
     15931       126  POPC      H6R           -27.0260946245       20.6203448243      -11.3558305940  MEMB      120             0.0000000000
     15932       126  POPC      H6S           -28.4078267224       19.5358588632      -11.1389448324  MEMB      120             0.0000000000
     15933       126  POPC      C27           -28.5722113107       21.5771750758      -10.1870653975  MEMB      120             0.0000000000
     15934       126  POPC      H7R           -28.2471411508       22.6001205868      -10.4738276425  MEMB      120             0.0000000000
     15935       126  POPC      H7S           -27.9504221326       21.2740711947       -9.3176827075  MEMB      120             0.0000000000
     15936       126  POPC      C28           -30.1327932023       21.4679550277       -9.7978462065  MEMB      120             0.0000000000
     15937       126  POPC      H8R           -30.4114793272       20.4033464368       -9.6453219766  MEMB      120             0.0000000000
     15938       126  POPC      H8S           -30.7420253238       21.7375133830      -10.6869443709  MEMB      120             0.0000000000
     15939       126  POPC      C29           -30.4420678460       22.2648640452       -8.5817210161  MEMB      120             0.0000000000
     15940       126  POPC      H91           -30.4477874144       23.3182477750       -8.8985026906  MEMB      120             0.0000000000
     15941       126  POPC      C210          -30.6275301142       21.8585564348       -7.3059516039  MEMB      120             0.0000000000
     15942       126  POPC      H101          -30.8932303917       22.6072377904       -6.5451102832  MEMB      120             0.0000000000
     15943       126  POPC      C211          -30.5449438865       20.4156472010       -6.8139588524  MEMB      120             0.0000000000
     15944       126  POPC      H11R          -30.8334767707       19.7933119568       -7.6878971424  MEMB      120             0.0000000000
     15945       126  POPC      H11S          -31.3331142915       20.1356301815       -6.0827275317  MEMB      120             0.0000000000
     15946       126  POPC      C212          -29.1771274674       20.1143414658       -6.2031015074  MEMB      120             0.0000000000
     15947       126  POPC      H12R          -28.4107917098       20.5853095673       -6.8552053499  MEMB      120             0.0000000000
     15948       126  POPC      H12S          -29.0085092488       19.0249447046       -6.3413171331  MEMB      120             0.0000000000
     15949       126  POPC      C213          -28.9159318854       20.4883965824       -4.7350299821  MEMB      120             0.0000000000
     15950       126  POPC      H13R          -29.2681081170       19.5689874720       -4.2202685671  MEMB      120             0.0000000000
     15951       126  POPC      H13S          -29.4768131267       21.4171948024       -4.4961430444  MEMB      120             0.0000000000
     15952       126  POPC      C214          -27.4125857112       20.7422311234       -4.5525010108  MEMB      120             0.0000000000
     15953       126  POPC      H14R          -27.1808941915       21.7534434232       -4.9501062773  MEMB      120             0.0000000000
     15954       126  POPC      H14S          -26.7127527709       20.0304885941       -5.0403303431  MEMB      120             0.0000000000
     15955       126  POPC      C215          -27.1290162316       20.7276157218       -3.0465995953  MEMB      120             0.0000000000
     15956       126  POPC      H15R          -27.2701905669       19.7327683769       -2.5726067809  MEMB      120             0.0000000000
     15957       126  POPC      H15S          -27.9041110855       21.4271560642       -2.6668744957  MEMB      120             0.0000000000
     15958       126  POPC      C216          -25.7547725036       21.2368927662       -2.7150330683  MEMB      120             0.0000000000
     15959       126  POPC      H16R          -25.6716634671       22.3004935618       -3.0251416511  MEMB      120             0.0000000000
     15960       126  POPC      H16S          -25.0193884874       20.5993892337       -3.2508689236  MEMB      120             0.0000000000
     15961       126  POPC      C217          -25.4871422579       21.1089166936       -1.2093341737  MEMB      120             0.0000000000
     15962       126  POPC      H17R          -24.4591985267       21.5131145560       -1.0898481205  MEMB      120             0.0000000000
     15963       126  POPC      H17S          -25.3664337451       20.0531317116       -0.8851899156  MEMB      120             0.0000000000
     15964       126  POPC      C218          -26.4778918814       21.7948886290       -0.1817135861  MEMB      120             0.0000000000
     15965       126  POPC      H18R          -26.2124010533       21.8745095232        0.8941578173  MEMB      120             0.0000000000
     15966       126  POPC      H18S          -27.4043326695       21.1938963442       -0.3035177238  MEMB      120             0.0000000000
     15967       126  POPC      H18T          -26.8074542798       22.8108662115       -0.4874879999  MEMB      120             0.0000000000
     15968       126  POPC      C33           -25.4192972380       14.9444182627      -11.9231588049  MEMB      120             0.0000000000
     15969       126  POPC      H3X           -25.0952802695       15.2630379175      -12.9369707986  MEMB      120             0.0000000000
     15970       126  POPC      H3Y           -24.6593780609       15.1259786597      -11.1332977623  MEMB      120             0.0000000000
     15971       126  POPC      C34           -26.4023943758       16.0185138268      -11.6179022655  MEMB      120             0.0000000000
     15972       126  POPC      H4X           -27.1935915375       16.0814795759      -12.3953105723  MEMB      120             0.0000000000
     15973       126  POPC      H4Y           -25.9761061973       17.0428693144      -11.5604991438  MEMB      120             0.0000000000
     15974       126  POPC      C35           -27.0621007667       15.8881772105      -10.2435682161  MEMB      120             0.0000000000
     15975       126  POPC      H5X           -27.3873017770       14.8343661322      -10.1092269074  MEMB      120             0.0000000000
     15976       126  POPC      H5Y           -27.9509252074       16.5536651858      -10.2056486270  MEMB      120             0.0000000000
     15977       126  POPC      C36           -26.1228810756       16.3510116422       -9.0796385780  MEMB      120             0.0000000000
     15978       126  POPC      H6X           -25.8641177449       17.3857299624       -9.3906375199  MEMB      120             0.0000000000
     15979       126  POPC      H6Y           -25.1439684216       15.8291291670       -9.0188982865  MEMB      120             0.0000000000
     15980       126  POPC      C37           -26.7428589479       16.3075203301       -7.6608394309  MEMB      120             0.0000000000
     15981       126  POPC      H7X           -27.7893670112       16.6684613813       -7.7549852174  MEMB      120             0.0000000000
     15982       126  POPC      H7Y           -26.1250260496       16.8784957829       -6.9351733172  MEMB      120             0.0000000000
     15983       126  POPC      C38           -26.9582473068       14.9577851707       -7.0510470663  MEMB      120             0.0000000000
     15984       126  POPC      H8X           -25.9561673695       14.6297458051       -6.7009792732  MEMB      120             0.0000000000
     15985       126  POPC      H8Y           -27.3612309063       14.3039504923       -7.8538080877  MEMB      120             0.0000000000
     15986       126  POPC      C39           -28.0871366695       14.9271266621       -6.0399048719  MEMB      120             0.0000000000
     15987       126  POPC      H9X           -28.9463961545       15.5358220184       -6.3941415203  MEMB      120             0.0000000000
     15988       126  POPC      H9Y           -27.6571810987       15.5126785644       -5.1993167752  MEMB      120             0.0000000000
     15989       126  POPC      C310          -28.5574882920       13.5231966984       -5.5791108376  MEMB      120             0.0000000000
     15990       126  POPC      H10X          -27.7387900808       12.9200052216       -5.1316586252  MEMB      120             0.0000000000
     15991       126  POPC      H10Y          -29.0096968296       12.9521071546       -6.4179705312  MEMB      120             0.0000000000
     15992       126  POPC      C311          -29.6679770225       13.7012593503       -4.4650162138  MEMB      120             0.0000000000
     15993       126  POPC      H11X          -30.0697865468       12.6734010532       -4.3370438777  MEMB      120             0.0000000000
     15994       126  POPC      H11Y          -30.4356845852       14.4137765937       -4.8355102973  MEMB      120             0.0000000000
     15995       126  POPC      C312          -29.0617127261       14.3514672181       -3.1362373512  MEMB      120             0.0000000000
     15996       126  POPC      H12X          -28.6446880999       15.3763516428       -3.2363561458  MEMB      120             0.0000000000
     15997       126  POPC      H12Y          -28.2293695273       13.6438934737       -2.9340878846  MEMB      120             0.0000000000
     15998       126  POPC      C313          -30.1211396136       14.4518366763       -2.0586258908  MEMB      120             0.0000000000
     15999       126  POPC      H13X          -30.8036077975       13.5752270174       -2.0479895681  MEMB      120             0.0000000000
     16000       126  POPC      H13Y          -30.7569103314       15.3450645734       -2.2382381566  MEMB      120             0.0000000000
     16001       126  POPC      C314          -29.5617759947       14.5682054416       -0.6285523395  MEMB      120             0.0000000000
     16002       126  POPC      H14X          -28.9618928010       13.6658717886       -0.3830833805  MEMB      120             0.0000000000
     16003       126  POPC      H14Y          -30.4219769464       14.7463700639        0.0516182893  MEMB      120             0.0000000000
     16004       126  POPC      C315          -28.5793418602       15.7166370888       -0.4010279158  MEMB      120             0.0000000000
     16005       126  POPC      H15X          -27.7175490997       15.6037511672       -1.0930474765  MEMB      120             0.0000000000
     16006       126  POPC      H15Y          -28.2360008985       15.5281133373        0.6386333986  MEMB      120             0.0000000000
     16007       126  POPC      C316          -29.1333036300       17.1984860343       -0.5902757786  MEMB      120             0.0000000000
     16008       126  POPC      H16X          -29.9668616593       17.2302770544        0.1435431479  MEMB      120             0.0000000000
     16009       126  POPC      H16Y          -29.4785552420       17.2142547504       -1.6461507464  MEMB      120             0.0000000000
     16010       126  POPC      H16Z          -28.3234526163       17.9272363996       -0.3725934197  MEMB      120             0.0000000000
     16011       127  POPC      N              25.3817436740       27.3555931225      -18.3900652349  MEMB      121             0.0000000000
     16012       127  POPC      C12            25.6231576310       27.9466872508      -19.7958507155  MEMB      121             0.0000000000
     16013       127  POPC      H12A           26.0924098456       27.2321322743      -20.4558609621  MEMB      121             0.0000000000
     16014       127  POPC      H12B           26.1964770216       28.8466212478      -19.6290468390  MEMB      121             0.0000000000
     16015       127  POPC      C13            24.2876611776       26.2878825044      -18.4392251096  MEMB      121             0.0000000000
     16016       127  POPC      H13A           24.5968580373       25.4588797384      -19.0585406651  MEMB      121             0.0000000000
     16017       127  POPC      H13B           24.0596557364       25.9225367492      -17.4488030029  MEMB      121             0.0000000000
     16018       127  POPC      H13C           23.3649735941       26.7470052213      -18.7621088172  MEMB      121             0.0000000000
     16019       127  POPC      C14            26.6910646694       26.6862551107      -17.9671989223  MEMB      121             0.0000000000
     16020       127  POPC      H14A           27.3537120747       27.5099752562      -17.7463289225  MEMB      121             0.0000000000
     16021       127  POPC      H14B           26.5620715066       26.1740233264      -17.0251907507  MEMB      121             0.0000000000
     16022       127  POPC      H14C           27.0845586045       26.0535094714      -18.7489887913  MEMB      121             0.0000000000
     16023       127  POPC      C15            25.2120192085       28.3818098094      -17.3895491567  MEMB      121             0.0000000000
     16024       127  POPC      H15A           26.0206707829       29.0957250946      -17.4425358736  MEMB      121             0.0000000000
     16025       127  POPC      H15B           25.3191535558       28.0037149799      -16.3835837481  MEMB      121             0.0000000000
     16026       127  POPC      H15C           24.2124259184       28.7883360528      -17.4337036457  MEMB      121             0.0000000000
     16027       127  POPC      C11            24.2516106657       28.4605431586      -20.5318835044  MEMB      121             0.0000000000
     16028       127  POPC      H11A           23.6037244102       27.6183562645      -20.8563608911  MEMB      121             0.0000000000
     16029       127  POPC      H11B           24.7044598678       28.9655352872      -21.4117878255  MEMB      121             0.0000000000
     16030       127  POPC      P              22.0178485227       29.1612968170      -19.2874024735  MEMB      121             0.0000000000
     16031       127  POPC      O13            21.9563207024       28.2899120433      -18.0531278768  MEMB      121             0.0000000000
     16032       127  POPC      O14            21.3269737011       28.7477162244      -20.5234386541  MEMB      121             0.0000000000
     16033       127  POPC      O12            23.5029322811       29.3529712017      -19.6884433058  MEMB      121             0.0000000000
     16034       127  POPC      O11            21.5128044647       30.6656448592      -18.9338150530  MEMB      121             0.0000000000
     16035       127  POPC      C1             22.4416717664       31.7291115172      -18.8438799896  MEMB      121             0.0000000000
     16036       127  POPC      HA             22.0084721541       32.7482685365      -18.7545618877  MEMB      121             0.0000000000
     16037       127  POPC      HB             23.2120471805       31.7413642088      -19.6443127353  MEMB      121             0.0000000000
     16038       127  POPC      C2             23.2498712374       31.5323475050      -17.5174353253  MEMB      121             0.0000000000
     16039       127  POPC      HS             23.8159582631       30.5792016253      -17.5907791821  MEMB      121             0.0000000000
     16040       127  POPC      O21            22.2961807598       31.5432929770      -16.4962943984  MEMB      121             0.0000000000
     16041       127  POPC      C21            22.5531925803       30.6554248727      -15.5036268874  MEMB      121             0.0000000000
     16042       127  POPC      O22            23.4317746267       29.8241308152      -15.4125221149  MEMB      121             0.0000000000
     16043       127  POPC      C22            21.3735577106       30.8543393936      -14.4989422260  MEMB      121             0.0000000000
     16044       127  POPC      H2R            20.4637642909       30.5457099666      -15.0569249631  MEMB      121             0.0000000000
     16045       127  POPC      H2S            21.3436207142       31.9587591386      -14.3819722916  MEMB      121             0.0000000000
     16046       127  POPC      C3             24.3543777765       32.5651874351      -17.1668279462  MEMB      121             0.0000000000
     16047       127  POPC      HX             23.9643176911       33.5721137408      -16.9055350021  MEMB      121             0.0000000000
     16048       127  POPC      HY             24.9625417355       32.7622285747      -18.0754713009  MEMB      121             0.0000000000
     16049       127  POPC      O31            25.2494836123       32.0969749635      -16.1432811775  MEMB      121             0.0000000000
     16050       127  POPC      C31            25.2204235460       32.8024750483      -14.9929713182  MEMB      121             0.0000000000
     16051       127  POPC      O32            24.5330527426       33.7789015239      -14.7365406213  MEMB      121             0.0000000000
     16052       127  POPC      C32            26.2220833485       32.1895452849      -14.0358912967  MEMB      121             0.0000000000
     16053       127  POPC      H2X            26.7325259530       33.0495847106      -13.5520512029  MEMB      121             0.0000000000
     16054       127  POPC      H2Y            26.9478479035       31.6140945163      -14.6494408932  MEMB      121             0.0000000000
     16055       127  POPC      C23            21.5549782067       30.0506484028      -13.2113998942  MEMB      121             0.0000000000
     16056       127  POPC      H3R            21.2081970457       30.6751975005      -12.3605171171  MEMB      121             0.0000000000
     16057       127  POPC      H3S            22.5953003988       29.7338198912      -12.9840888360  MEMB      121             0.0000000000
     16058       127  POPC      C24            20.6216208764       28.8223088291      -13.1830461499  MEMB      121             0.0000000000
     16059       127  POPC      H4R            19.6410110041       28.9611342979      -13.6864868691  MEMB      121             0.0000000000
     16060       127  POPC      H4S            20.4191131417       28.6594742796      -12.1028625595  MEMB      121             0.0000000000
     16061       127  POPC      C25            21.0921005690       27.4682076171      -13.8179191349  MEMB      121             0.0000000000
     16062       127  POPC      H5R            22.0202457434       27.2473307408      -13.2486378696  MEMB      121             0.0000000000
     16063       127  POPC      H5S            21.2818856014       27.6297047311      -14.9006108492  MEMB      121             0.0000000000
     16064       127  POPC      C26            20.1245070284       26.2568998544      -13.6662217893  MEMB      121             0.0000000000
     16065       127  POPC      H6R            20.5982861582       25.3647507828      -14.1287408902  MEMB      121             0.0000000000
     16066       127  POPC      H6S            19.3238345319       26.3820243126      -14.4262141232  MEMB      121             0.0000000000
     16067       127  POPC      C27            19.5791073134       25.9463951950      -12.2725581797  MEMB      121             0.0000000000
     16068       127  POPC      H7R            18.7455520813       25.2281055202      -12.4260738612  MEMB      121             0.0000000000
     16069       127  POPC      H7S            18.9709820662       26.7791350555      -11.8589776602  MEMB      121             0.0000000000
     16070       127  POPC      C28            20.5570959884       25.2413368469      -11.3248272434  MEMB      121             0.0000000000
     16071       127  POPC      H8R            20.8825973700       24.2981562189      -11.8134785139  MEMB      121             0.0000000000
     16072       127  POPC      H8S            20.0467011492       24.9607066682      -10.3787485339  MEMB      121             0.0000000000
     16073       127  POPC      C29            21.8713484480       25.8816489432      -10.9446974317  MEMB      121             0.0000000000
     16074       127  POPC      H91            22.6962727716       25.4816340959      -11.5525529720  MEMB      121             0.0000000000
     16075       127  POPC      C210           22.1346012917       26.7117841746       -9.9240304904  MEMB      121             0.0000000000
     16076       127  POPC      H101           23.1370317628       27.1631634018       -9.9613105604  MEMB      121             0.0000000000
     16077       127  POPC      C211           21.1275072233       27.2232641737       -8.9097073323  MEMB      121             0.0000000000
     16078       127  POPC      H11R           20.0868356296       27.1748864836       -9.2956913405  MEMB      121             0.0000000000
     16079       127  POPC      H11S           21.2801838216       28.3207216523       -8.8284805732  MEMB      121             0.0000000000
     16080       127  POPC      C212           21.1338836684       26.5801394979       -7.5762383622  MEMB      121             0.0000000000
     16081       127  POPC      H12R           20.7830664866       25.5260087298       -7.5686943699  MEMB      121             0.0000000000
     16082       127  POPC      H12S           20.4042295209       27.2255094202       -7.0419881619  MEMB      121             0.0000000000
     16083       127  POPC      C213           22.4598288882       26.5675871664       -6.7606400545  MEMB      121             0.0000000000
     16084       127  POPC      H13R           22.8230863149       27.6100531027       -6.6356211410  MEMB      121             0.0000000000
     16085       127  POPC      H13S           23.2515094352       25.9861896872       -7.2798123871  MEMB      121             0.0000000000
     16086       127  POPC      C214           22.4113410334       25.8448673711       -5.4298158030  MEMB      121             0.0000000000
     16087       127  POPC      H14R           23.4328655269       25.6138477225       -5.0590879283  MEMB      121             0.0000000000
     16088       127  POPC      H14S           21.8387569358       24.8939523887       -5.4770288452  MEMB      121             0.0000000000
     16089       127  POPC      C215           21.6569981303       26.6606101342       -4.3450060256  MEMB      121             0.0000000000
     16090       127  POPC      H15R           20.6975909913       26.8694488433       -4.8648568216  MEMB      121             0.0000000000
     16091       127  POPC      H15S           22.1931600318       27.5863608359       -4.0452779749  MEMB      121             0.0000000000
     16092       127  POPC      C216           21.4577039598       25.7621217601       -3.1150109303  MEMB      121             0.0000000000
     16093       127  POPC      H16R           22.4054087089       25.2601939194       -2.8247602987  MEMB      121             0.0000000000
     16094       127  POPC      H16S           20.7216054168       24.9591494327       -3.3334494535  MEMB      121             0.0000000000
     16095       127  POPC      C217           21.1504939843       26.4951809430       -1.7921667138  MEMB      121             0.0000000000
     16096       127  POPC      H17R           22.0307386839       27.0882780053       -1.4639497568  MEMB      121             0.0000000000
     16097       127  POPC      H17S           20.9426924860       25.6547805991       -1.0958428988  MEMB      121             0.0000000000
     16098       127  POPC      C218           20.0119511623       27.5340754055       -1.7901340738  MEMB      121             0.0000000000
     16099       127  POPC      H18R           20.2519559590       28.4442723677       -2.3802689585  MEMB      121             0.0000000000
     16100       127  POPC      H18S           19.8093299621       27.8694234291       -0.7505142330  MEMB      121             0.0000000000
     16101       127  POPC      H18T           19.1175467974       27.0752137706       -2.2632160783  MEMB      121             0.0000000000
     16102       127  POPC      C33            25.5175903288       31.2709516093      -13.0317000684  MEMB      121             0.0000000000
     16103       127  POPC      H3X            25.0334257730       30.3787044730      -13.4831426258  MEMB      121             0.0000000000
     16104       127  POPC      H3Y            24.7221354509       31.8193738220      -12.4832428351  MEMB      121             0.0000000000
     16105       127  POPC      C34            26.5026888626       30.7738308224      -11.9686144715  MEMB      121             0.0000000000
     16106       127  POPC      H4X            26.9341985333       31.5118328228      -11.2590559470  MEMB      121             0.0000000000
     16107       127  POPC      H4Y            27.3792409190       30.5436637085      -12.6112653970  MEMB      121             0.0000000000
     16108       127  POPC      C35            25.8933742388       29.5943537670      -11.0982359721  MEMB      121             0.0000000000
     16109       127  POPC      H5X            26.7241735398       29.1419126905      -10.5156634673  MEMB      121             0.0000000000
     16110       127  POPC      H5Y            25.5227158396       28.8657551852      -11.8506172305  MEMB      121             0.0000000000
     16111       127  POPC      C36            24.6873434637       29.9732062604      -10.2070110050  MEMB      121             0.0000000000
     16112       127  POPC      H6X            24.5427726113       28.9689437892       -9.7543773636  MEMB      121             0.0000000000
     16113       127  POPC      H6Y            23.8207067955       30.2739580177      -10.8337572112  MEMB      121             0.0000000000
     16114       127  POPC      C37            24.8753992266       31.0521142733       -9.1540489820  MEMB      121             0.0000000000
     16115       127  POPC      H7X            23.8521898809       31.1515440854       -8.7327688418  MEMB      121             0.0000000000
     16116       127  POPC      H7Y            25.1831768640       32.0444650190       -9.5475386195  MEMB      121             0.0000000000
     16117       127  POPC      C38            25.8045624091       30.5143258690       -8.0147390509  MEMB      121             0.0000000000
     16118       127  POPC      H8X            26.7792103245       30.3041737224       -8.5048597118  MEMB      121             0.0000000000
     16119       127  POPC      H8Y            25.4575975527       29.5216974174       -7.6560954871  MEMB      121             0.0000000000
     16120       127  POPC      C39            25.8953703166       31.4879972726       -6.7858806377  MEMB      121             0.0000000000
     16121       127  POPC      H9X            26.3969258437       32.4044042270       -7.1639824976  MEMB      121             0.0000000000
     16122       127  POPC      H9Y            26.5046476378       31.0353922424       -5.9745544516  MEMB      121             0.0000000000
     16123       127  POPC      C310           24.5827540186       31.9584625897       -6.0863374438  MEMB      121             0.0000000000
     16124       127  POPC      H10X           23.9801324626       31.0820825973       -5.7652046308  MEMB      121             0.0000000000
     16125       127  POPC      H10Y           23.8644120370       32.5159859505       -6.7246739550  MEMB      121             0.0000000000
     16126       127  POPC      C311           24.9359186809       32.8080875069       -4.8635077860  MEMB      121             0.0000000000
     16127       127  POPC      H11X           24.0838545166       33.5147240398       -4.7687853764  MEMB      121             0.0000000000
     16128       127  POPC      H11Y           25.8213822153       33.4281208136       -5.1200892323  MEMB      121             0.0000000000
     16129       127  POPC      C312           24.8714737823       32.0482539592       -3.4587233609  MEMB      121             0.0000000000
     16130       127  POPC      H12X           23.8920664499       31.5611015472       -3.2643914132  MEMB      121             0.0000000000
     16131       127  POPC      H12Y           25.1389202351       32.7807654429       -2.6673824718  MEMB      121             0.0000000000
     16132       127  POPC      C313           25.8747765456       30.8734024534       -3.3308736157  MEMB      121             0.0000000000
     16133       127  POPC      H13X           26.8763334581       31.1670299845       -3.7116460419  MEMB      121             0.0000000000
     16134       127  POPC      H13Y           25.5245823817       30.0362683947       -3.9718819728  MEMB      121             0.0000000000
     16135       127  POPC      C314           25.9902726507       30.4704252826       -1.8873205745  MEMB      121             0.0000000000
     16136       127  POPC      H14X           24.9360299511       30.2758258030       -1.5957307710  MEMB      121             0.0000000000
     16137       127  POPC      H14Y           26.4293102984       31.2800110827       -1.2659210456  MEMB      121             0.0000000000
     16138       127  POPC      C315           26.8232336949       29.1809563936       -1.6600155474  MEMB      121             0.0000000000
     16139       127  POPC      H15X           27.7347690887       29.2381951326       -2.2925891904  MEMB      121             0.0000000000
     16140       127  POPC      H15Y           26.2481195730       28.3902410612       -2.1875909404  MEMB      121             0.0000000000
     16141       127  POPC      C316           26.9738846411       28.8643010302       -0.1426055130  MEMB      121             0.0000000000
     16142       127  POPC      H16X           26.0096401036       28.9179962886        0.4066404845  MEMB      121             0.0000000000
     16143       127  POPC      H16Y           27.7330201852       29.5799773784        0.2392866927  MEMB      121             0.0000000000
     16144       127  POPC      H16Z           27.4716110908       27.8761720452       -0.0416589142  MEMB      121             0.0000000000
     16145       128  POPC      N              16.4285243143      -30.9632837217      -19.4298267364  MEMB      122             0.0000000000
     16146       128  POPC      C12            15.7073235974      -32.2775543268      -19.8672395399  MEMB      122             0.0000000000
     16147       128  POPC      H12A           15.0852253555      -31.8693247526      -20.6500181854  MEMB      122             0.0000000000
     16148       128  POPC      H12B           15.0535659103      -32.6220781880      -19.0796456443  MEMB      122             0.0000000000
     16149       128  POPC      C13            15.3586305577      -29.9011670203      -19.3070736746  MEMB      122             0.0000000000
     16150       128  POPC      H13A           14.7968066496      -29.8774677701      -20.2291323834  MEMB      122             0.0000000000
     16151       128  POPC      H13B           14.6523185472      -30.1668354997      -18.5344524210  MEMB      122             0.0000000000
     16152       128  POPC      H13C           15.7726036936      -28.9356318061      -19.0565380845  MEMB      122             0.0000000000
     16153       128  POPC      C14            17.2080113234      -31.1578341776      -18.1461714715  MEMB      122             0.0000000000
     16154       128  POPC      H14A           17.6344643488      -32.1483518362      -18.2045883998  MEMB      122             0.0000000000
     16155       128  POPC      H14B           17.8357618023      -30.3039904088      -17.9381326263  MEMB      122             0.0000000000
     16156       128  POPC      H14C           16.4369608673      -31.2041108971      -17.3913604271  MEMB      122             0.0000000000
     16157       128  POPC      C15            17.3771548967      -30.5582434676      -20.5160006504  MEMB      122             0.0000000000
     16158       128  POPC      H15A           17.9192798392      -31.4677301723      -20.7289195709  MEMB      122             0.0000000000
     16159       128  POPC      H15B           18.1501037893      -29.8687869774      -20.2100600735  MEMB      122             0.0000000000
     16160       128  POPC      H15C           16.7586452938      -30.1925100645      -21.3222788745  MEMB      122             0.0000000000
     16161       128  POPC      C11            16.5939145253      -33.4904371805      -20.3377058846  MEMB      122             0.0000000000
     16162       128  POPC      H11A           17.0146441344      -33.2278835563      -21.3318754752  MEMB      122             0.0000000000
     16163       128  POPC      H11B           16.0336065614      -34.4306793822      -20.5282858030  MEMB      122             0.0000000000
     16164       128  POPC      P              17.4143741390      -34.7402700521      -18.2600416930  MEMB      122             0.0000000000
     16165       128  POPC      O13            18.0985391109      -34.2121218703      -17.0761004027  MEMB      122             0.0000000000
     16166       128  POPC      O14            17.7494371384      -36.0962417835      -18.6082105745  MEMB      122             0.0000000000
     16167       128  POPC      O12            17.6910133593      -33.7763705131      -19.5070529213  MEMB      122             0.0000000000
     16168       128  POPC      O11            15.8600490249      -34.5962556444      -17.9445764534  MEMB      122             0.0000000000
     16169       128  POPC      C1             15.0249595298      -35.6586223217      -18.4209540626  MEMB      122             0.0000000000
     16170       128  POPC      HA             15.5320857339      -36.6254346355      -18.6269097532  MEMB      122             0.0000000000
     16171       128  POPC      HB             14.5226785916      -35.3385858401      -19.3588301250  MEMB      122             0.0000000000
     16172       128  POPC      C2             13.8277825604      -35.9179727590      -17.5216552487  MEMB      122             0.0000000000
     16173       128  POPC      HS             12.9740502850      -36.2016189520      -18.1735806622  MEMB      122             0.0000000000
     16174       128  POPC      O21            13.6853820026      -34.7617903453      -16.6862624727  MEMB      122             0.0000000000
     16175       128  POPC      C21            12.9361776885      -33.7512928579      -17.2322686814  MEMB      122             0.0000000000
     16176       128  POPC      O22            12.4001869455      -33.8019286282      -18.3111378007  MEMB      122             0.0000000000
     16177       128  POPC      C22            12.7598236324      -32.6384043831      -16.2288809114  MEMB      122             0.0000000000
     16178       128  POPC      H2R            11.7180774774      -32.2552619726      -16.2767118473  MEMB      122             0.0000000000
     16179       128  POPC      H2S            13.4115357484      -31.8072543950      -16.5735287854  MEMB      122             0.0000000000
     16180       128  POPC      C3             14.0228009970      -37.2160651508      -16.7120123982  MEMB      122             0.0000000000
     16181       128  POPC      HX             14.0995761909      -38.1188024604      -17.3550457069  MEMB      122             0.0000000000
     16182       128  POPC      HY             13.1315831084      -37.4412812852      -16.0880495344  MEMB      122             0.0000000000
     16183       128  POPC      O31            15.2684797348      -37.1530541747      -16.0547577415  MEMB      122             0.0000000000
     16184       128  POPC      C31            15.0944860391      -36.9123301742      -14.7907895669  MEMB      122             0.0000000000
     16185       128  POPC      O32            14.0072591024      -36.8503555906      -14.1634055397  MEMB      122             0.0000000000
     16186       128  POPC      C32            16.4863121420      -36.3823927650      -14.3313301633  MEMB      122             0.0000000000
     16187       128  POPC      H2X            17.3426685445      -36.7912320036      -14.9091062590  MEMB      122             0.0000000000
     16188       128  POPC      H2Y            16.6826499382      -36.6422993182      -13.2691527995  MEMB      122             0.0000000000
     16189       128  POPC      C23            13.1791952399      -33.0065237746      -14.7532494221  MEMB      122             0.0000000000
     16190       128  POPC      H3R            14.2640166180      -33.2452610034      -14.7753404333  MEMB      122             0.0000000000
     16191       128  POPC      H3S            12.6037609014      -33.9309959167      -14.5329142107  MEMB      122             0.0000000000
     16192       128  POPC      C24            12.8868414511      -31.8070898529      -13.8653466492  MEMB      122             0.0000000000
     16193       128  POPC      H4R            11.7844259600      -31.6692680453      -13.8628196822  MEMB      122             0.0000000000
     16194       128  POPC      H4S            13.3709668515      -30.8503461724      -14.1561817670  MEMB      122             0.0000000000
     16195       128  POPC      C25            13.5108704635      -32.0874032513      -12.4393657894  MEMB      122             0.0000000000
     16196       128  POPC      H5R            13.4057175364      -31.2368626907      -11.7323686180  MEMB      122             0.0000000000
     16197       128  POPC      H5S            14.5477055666      -32.2527332120      -12.8026286394  MEMB      122             0.0000000000
     16198       128  POPC      C26            13.0279479975      -33.3617105738      -11.7073429709  MEMB      122             0.0000000000
     16199       128  POPC      H6R            12.8858804979      -34.1408795557      -12.4864668850  MEMB      122             0.0000000000
     16200       128  POPC      H6S            11.9663497670      -33.1463863469      -11.4604307096  MEMB      122             0.0000000000
     16201       128  POPC      C27            13.8287413144      -33.8478711178      -10.5172601450  MEMB      122             0.0000000000
     16202       128  POPC      H7R            13.8355195771      -32.9770013572       -9.8274336000  MEMB      122             0.0000000000
     16203       128  POPC      H7S            14.8199107233      -33.9388312799      -11.0108493563  MEMB      122             0.0000000000
     16204       128  POPC      C28            13.3212038522      -35.0854494687       -9.8001708447  MEMB      122             0.0000000000
     16205       128  POPC      H8R            13.2428622794      -35.8459933695      -10.6062449942  MEMB      122             0.0000000000
     16206       128  POPC      H8S            12.4051703333      -34.7921040225       -9.2441554849  MEMB      122             0.0000000000
     16207       128  POPC      C29            14.0987817410      -35.8326223342       -8.7859481483  MEMB      122             0.0000000000
     16208       128  POPC      H91            15.0255508291      -36.3224283012       -9.1193988059  MEMB      122             0.0000000000
     16209       128  POPC      C210           13.8235728028      -36.0159160137       -7.4467759446  MEMB      122             0.0000000000
     16210       128  POPC      H101           14.5842194253      -36.4603396247       -6.7880618605  MEMB      122             0.0000000000
     16211       128  POPC      C211           12.5608471516      -35.4541427598       -6.6986894904  MEMB      122             0.0000000000
     16212       128  POPC      H11R           12.6288377172      -35.8156739993       -5.6503611112  MEMB      122             0.0000000000
     16213       128  POPC      H11S           11.6287087239      -35.7273311104       -7.2379547630  MEMB      122             0.0000000000
     16214       128  POPC      C212           12.5566527900      -33.9091646695       -6.6719760506  MEMB      122             0.0000000000
     16215       128  POPC      H12R           11.5500210182      -33.6091139841       -6.3100606857  MEMB      122             0.0000000000
     16216       128  POPC      H12S           12.5801327405      -33.5167726829       -7.7111099317  MEMB      122             0.0000000000
     16217       128  POPC      C213           13.6587533050      -33.3226608443       -5.8254893369  MEMB      122             0.0000000000
     16218       128  POPC      H13R           14.5209454356      -33.1054988569       -6.4916623833  MEMB      122             0.0000000000
     16219       128  POPC      H13S           13.9269468500      -34.0682353052       -5.0467006656  MEMB      122             0.0000000000
     16220       128  POPC      C214           13.3951134097      -32.0343860912       -4.9631991829  MEMB      122             0.0000000000
     16221       128  POPC      H14R           12.4843916873      -32.1775814928       -4.3431978324  MEMB      122             0.0000000000
     16222       128  POPC      H14S           13.1882335445      -31.2293278756       -5.7003577863  MEMB      122             0.0000000000
     16223       128  POPC      C215           14.5233388196      -31.6862509310       -3.9709957191  MEMB      122             0.0000000000
     16224       128  POPC      H15R           15.3890964472      -31.2663714659       -4.5264109672  MEMB      122             0.0000000000
     16225       128  POPC      H15S           14.8603175846      -32.6504320890       -3.5338222834  MEMB      122             0.0000000000
     16226       128  POPC      C216           13.9784119648      -30.7150518068       -2.8948605983  MEMB      122             0.0000000000
     16227       128  POPC      H16R           13.3521955544      -29.9180058739       -3.3497143310  MEMB      122             0.0000000000
     16228       128  POPC      H16S           14.8865896170      -30.2581663256       -2.4467641881  MEMB      122             0.0000000000
     16229       128  POPC      C217           12.9906039540      -31.2025673531       -1.8550185039  MEMB      122             0.0000000000
     16230       128  POPC      H17R           13.5776591434      -31.6260139675       -1.0121766208  MEMB      122             0.0000000000
     16231       128  POPC      H17S           12.2000374878      -31.9179260957       -2.1674077323  MEMB      122             0.0000000000
     16232       128  POPC      C218           12.1380514383      -30.0554661123       -1.0636461200  MEMB      122             0.0000000000
     16233       128  POPC      H18R           12.9555585912      -29.3683492473       -0.7572573111  MEMB      122             0.0000000000
     16234       128  POPC      H18S           11.3671253739      -30.3823191497       -0.3334673205  MEMB      122             0.0000000000
     16235       128  POPC      H18T           11.6335207970      -29.5137432309       -1.8920809883  MEMB      122             0.0000000000
     16236       128  POPC      C33            16.5190164602      -34.8763771576      -14.3539896550  MEMB      122             0.0000000000
     16237       128  POPC      H3X            15.8741731934      -34.4203018457      -13.5726489690  MEMB      122             0.0000000000
     16238       128  POPC      H3Y            16.2228051943      -34.4778363554      -15.3478431928  MEMB      122             0.0000000000
     16239       128  POPC      C34            17.9628833270      -34.4397744135      -14.0166239650  MEMB      122             0.0000000000
     16240       128  POPC      H4X            18.0378592494      -33.4005218609      -14.4021804014  MEMB      122             0.0000000000
     16241       128  POPC      H4Y            18.5918520818      -35.0907575421      -14.6607828209  MEMB      122             0.0000000000
     16242       128  POPC      C35            18.5301518939      -34.6415457352      -12.6120205347  MEMB      122             0.0000000000
     16243       128  POPC      H5X            19.5417219111      -34.2021759441      -12.7461887186  MEMB      122             0.0000000000
     16244       128  POPC      H5Y            18.6364109416      -35.6653928036      -12.1939686631  MEMB      122             0.0000000000
     16245       128  POPC      C36            17.8504694512      -33.7118440544      -11.5765280022  MEMB      122             0.0000000000
     16246       128  POPC      H6X            16.7723197497      -33.9638789936      -11.6681387000  MEMB      122             0.0000000000
     16247       128  POPC      H6Y            18.0355920562      -32.6418812366      -11.8115387531  MEMB      122             0.0000000000
     16248       128  POPC      C37            18.1335058393      -33.9817942109      -10.0369491544  MEMB      122             0.0000000000
     16249       128  POPC      H7X            19.2419228645      -34.0240456658       -9.9741222552  MEMB      122             0.0000000000
     16250       128  POPC      H7Y            17.6453664318      -34.9296027492       -9.7243793885  MEMB      122             0.0000000000
     16251       128  POPC      C38            17.5716005613      -32.8894645499       -9.1170985115  MEMB      122             0.0000000000
     16252       128  POPC      H8X            16.4823288233      -32.9044617394       -9.3352340218  MEMB      122             0.0000000000
     16253       128  POPC      H8Y            17.9441300112      -31.8807966179       -9.3966194333  MEMB      122             0.0000000000
     16254       128  POPC      C39            17.9482867709      -32.9183886827       -7.6686180494  MEMB      122             0.0000000000
     16255       128  POPC      H9X            17.5989943938      -31.9711128423       -7.2049543564  MEMB      122             0.0000000000
     16256       128  POPC      H9Y            19.0518665315      -32.9633861068       -7.5485849294  MEMB      122             0.0000000000
     16257       128  POPC      C310           17.3076267260      -34.1586569274       -6.9284935524  MEMB      122             0.0000000000
     16258       128  POPC      H10X           17.9687754878      -34.9985446268       -7.2314641133  MEMB      122             0.0000000000
     16259       128  POPC      H10Y           16.2577701383      -34.3195655800       -7.2544234274  MEMB      122             0.0000000000
     16260       128  POPC      C311           17.2858549197      -34.0636586807       -5.3641353493  MEMB      122             0.0000000000
     16261       128  POPC      H11X           16.8006637428      -33.1129129459       -5.0559262050  MEMB      122             0.0000000000
     16262       128  POPC      H11Y           18.3698265722      -34.0018084889       -5.1285491085  MEMB      122             0.0000000000
     16263       128  POPC      C312           16.7000695798      -35.2757733068       -4.8459829760  MEMB      122             0.0000000000
     16264       128  POPC      H12X           17.2537747659      -36.1292843037       -5.2923587781  MEMB      122             0.0000000000
     16265       128  POPC      H12Y           15.6762963273      -35.4603755662       -5.2360229912  MEMB      122             0.0000000000
     16266       128  POPC      C313           16.6181922953      -35.3344940000       -3.2634297983  MEMB      122             0.0000000000
     16267       128  POPC      H13X           16.2432416115      -34.3560143049       -2.8942280967  MEMB      122             0.0000000000
     16268       128  POPC      H13Y           17.6859526669      -35.2968006939       -2.9588183183  MEMB      122             0.0000000000
     16269       128  POPC      C314           15.9391115655      -36.6389395324       -2.7389562087  MEMB      122             0.0000000000
     16270       128  POPC      H14X           16.6712095813      -37.4341641287       -2.9958050772  MEMB      122             0.0000000000
     16271       128  POPC      H14Y           15.0384736872      -36.7516326463       -3.3796379114  MEMB      122             0.0000000000
     16272       128  POPC      C315           15.6845237700      -36.5315851898       -1.2385983198  MEMB      122             0.0000000000
     16273       128  POPC      H15X           16.6259776433      -36.1880519963       -0.7590456284  MEMB      122             0.0000000000
     16274       128  POPC      H15Y           15.2842618690      -37.4884702669       -0.8404993966  MEMB      122             0.0000000000
     16275       128  POPC      C316           14.6029035355      -35.4837510262       -0.8601666433  MEMB      122             0.0000000000
     16276       128  POPC      H16X           14.6970976858      -35.1671060239        0.2005802784  MEMB      122             0.0000000000
     16277       128  POPC      H16Y           13.6085052610      -35.9788169532       -0.8400975842  MEMB      122             0.0000000000
     16278       128  POPC      H16Z           14.4095151382      -34.6504097097       -1.5690138283  MEMB      122             0.0000000000
     16279       129  POPC      N             -31.1724976296      -14.8402580343      -20.0602983048  MEMB      123             0.0000000000
     16280       129  POPC      C12           -31.3800851001      -15.5781317920      -18.7951984829  MEMB      123             0.0000000000
     16281       129  POPC      H12A          -31.8917330419      -14.8983063770      -18.1300264506  MEMB      123             0.0000000000
     16282       129  POPC      H12B          -30.3915267507      -15.7286828230      -18.3871705520  MEMB      123             0.0000000000
     16283       129  POPC      C13           -32.4417664388      -14.2951520175      -20.6310157957  MEMB      123             0.0000000000
     16284       129  POPC      H13A          -32.2626104977      -13.6102830290      -21.4466490524  MEMB      123             0.0000000000
     16285       129  POPC      H13B          -32.9926843138      -15.1527007985      -20.9880868486  MEMB      123             0.0000000000
     16286       129  POPC      H13C          -33.0833017187      -13.8344312540      -19.8944230602  MEMB      123             0.0000000000
     16287       129  POPC      C14           -30.2863999072      -13.6722558706      -19.7918652000  MEMB      123             0.0000000000
     16288       129  POPC      H14A          -30.6112761334      -13.1871594535      -18.8832746219  MEMB      123             0.0000000000
     16289       129  POPC      H14B          -29.2717700188      -13.9982874785      -19.6168517283  MEMB      123             0.0000000000
     16290       129  POPC      H14C          -30.3345586416      -12.9369055817      -20.5813844546  MEMB      123             0.0000000000
     16291       129  POPC      C15           -30.4646495617      -15.8309673546      -21.0721241406  MEMB      123             0.0000000000
     16292       129  POPC      H15A          -30.8955229811      -15.7100903700      -22.0550467578  MEMB      123             0.0000000000
     16293       129  POPC      H15B          -30.7044583123      -16.8613864557      -20.8550337714  MEMB      123             0.0000000000
     16294       129  POPC      H15C          -29.4037706516      -15.6404131611      -21.1401332700  MEMB      123             0.0000000000
     16295       129  POPC      C11           -32.1294665578      -16.9221804288      -18.6060204030  MEMB      123             0.0000000000
     16296       129  POPC      H11A          -32.0814745408      -17.3499276065      -17.5817889356  MEMB      123             0.0000000000
     16297       129  POPC      H11B          -31.6571607775      -17.7574305839      -19.1660252816  MEMB      123             0.0000000000
     16298       129  POPC      P             -34.7017388364      -16.8880182201      -18.0203843199  MEMB      123             0.0000000000
     16299       129  POPC      O13           -34.5427228263      -18.2835079875      -17.5519098244  MEMB      123             0.0000000000
     16300       129  POPC      O14           -35.9736536706      -16.4064971127      -18.5932690607  MEMB      123             0.0000000000
     16301       129  POPC      O12           -33.4785000609      -16.6937609687      -19.0810283067  MEMB      123             0.0000000000
     16302       129  POPC      O11           -34.2386901082      -16.0103280981      -16.7968861563  MEMB      123             0.0000000000
     16303       129  POPC      C1            -34.6699036525      -14.7101664773      -16.7206536306  MEMB      123             0.0000000000
     16304       129  POPC      HA            -35.7742173145      -14.6983521198      -16.5995226126  MEMB      123             0.0000000000
     16305       129  POPC      HB            -34.3787550485      -14.1799032446      -17.6525197005  MEMB      123             0.0000000000
     16306       129  POPC      C2            -34.1699962081      -13.8895037403      -15.4799782704  MEMB      123             0.0000000000
     16307       129  POPC      HS            -34.6975617926      -12.9173478043      -15.5844202204  MEMB      123             0.0000000000
     16308       129  POPC      O21           -32.7751098404      -13.6473590240      -15.3936777101  MEMB      123             0.0000000000
     16309       129  POPC      C21           -32.2867503225      -12.7780796908      -16.1760804786  MEMB      123             0.0000000000
     16310       129  POPC      O22           -32.9483025307      -11.9460051393      -16.7986054123  MEMB      123             0.0000000000
     16311       129  POPC      C22           -30.7547383040      -12.8833752105      -16.1277765800  MEMB      123             0.0000000000
     16312       129  POPC      H2R           -30.4500011990      -11.8242964401      -16.2685179490  MEMB      123             0.0000000000
     16313       129  POPC      H2S           -30.4100343343      -13.5998428005      -16.9037754506  MEMB      123             0.0000000000
     16314       129  POPC      C3            -34.5729628872      -14.5632762523      -14.1427638703  MEMB      123             0.0000000000
     16315       129  POPC      HX            -35.6274255751      -14.8890296781      -14.2704905954  MEMB      123             0.0000000000
     16316       129  POPC      HY            -34.4479877868      -13.8565964232      -13.2946445602  MEMB      123             0.0000000000
     16317       129  POPC      O31           -33.7668944154      -15.6691737761      -13.8035382903  MEMB      123             0.0000000000
     16318       129  POPC      C31           -34.3578561024      -16.6878532649      -13.0816846354  MEMB      123             0.0000000000
     16319       129  POPC      O32           -35.5030229499      -16.6319688860      -12.6170586095  MEMB      123             0.0000000000
     16320       129  POPC      C32           -33.3838186833      -17.7125803552      -12.7587063699  MEMB      123             0.0000000000
     16321       129  POPC      H2X           -32.4109667517      -17.2643153827      -12.4638527258  MEMB      123             0.0000000000
     16322       129  POPC      H2Y           -33.0804580748      -18.3119197138      -13.6436276244  MEMB      123             0.0000000000
     16323       129  POPC      C23           -30.2694574267      -13.3318029572      -14.7377380334  MEMB      123             0.0000000000
     16324       129  POPC      H3R           -30.5084346754      -14.3818321198      -14.4645170917  MEMB      123             0.0000000000
     16325       129  POPC      H3S           -30.6391236149      -12.6339741942      -13.9562631476  MEMB      123             0.0000000000
     16326       129  POPC      C24           -28.7189089300      -13.2039805892      -14.5460730746  MEMB      123             0.0000000000
     16327       129  POPC      H4R           -28.4127885665      -12.1449080485      -14.4083182628  MEMB      123             0.0000000000
     16328       129  POPC      H4S           -28.1122196026      -13.6625895724      -15.3559662228  MEMB      123             0.0000000000
     16329       129  POPC      C25           -28.1539493334      -13.9460480215      -13.2546312032  MEMB      123             0.0000000000
     16330       129  POPC      H5R           -27.0521315885      -14.0247218645      -13.1357646947  MEMB      123             0.0000000000
     16331       129  POPC      H5S           -28.5420700938      -14.9860866772      -13.2993749801  MEMB      123             0.0000000000
     16332       129  POPC      C26           -28.7893367867      -13.4567444708      -11.9446246522  MEMB      123             0.0000000000
     16333       129  POPC      H6R           -29.8304479297      -13.7967747841      -12.1311393059  MEMB      123             0.0000000000
     16334       129  POPC      H6S           -28.7754977922      -12.3493424090      -11.8563643630  MEMB      123             0.0000000000
     16335       129  POPC      C27           -28.1387050833      -14.1479770564      -10.7481190977  MEMB      123             0.0000000000
     16336       129  POPC      H7R           -27.1236321015      -13.7024015837      -10.6745613362  MEMB      123             0.0000000000
     16337       129  POPC      H7S           -27.9188524567      -15.1947936109      -11.0483870754  MEMB      123             0.0000000000
     16338       129  POPC      C28           -28.8768981185      -13.9085909414       -9.4414427093  MEMB      123             0.0000000000
     16339       129  POPC      H8R           -28.1992409502      -14.4540356189       -8.7503630463  MEMB      123             0.0000000000
     16340       129  POPC      H8S           -29.8986187104      -14.3448259812       -9.4311050895  MEMB      123             0.0000000000
     16341       129  POPC      C29           -29.0934642977      -12.4840713689       -9.0452954014  MEMB      123             0.0000000000
     16342       129  POPC      H91           -29.6823457607      -11.9796090095       -9.8255114188  MEMB      123             0.0000000000
     16343       129  POPC      C210          -28.5949186901      -11.8157225469       -7.9849086675  MEMB      123             0.0000000000
     16344       129  POPC      H101          -28.9518709332      -10.8111403198       -7.7139847580  MEMB      123             0.0000000000
     16345       129  POPC      C211          -27.6529054232      -12.3110659671       -6.8668848344  MEMB      123             0.0000000000
     16346       129  POPC      H11R          -26.9528175550      -11.4785265312       -6.6408831743  MEMB      123             0.0000000000
     16347       129  POPC      H11S          -26.9908656303      -13.1045088443       -7.2748955952  MEMB      123             0.0000000000
     16348       129  POPC      C212          -28.3551088670      -12.6477025587       -5.5105909294  MEMB      123             0.0000000000
     16349       129  POPC      H12R          -28.8090294609      -11.7200489151       -5.1010352004  MEMB      123             0.0000000000
     16350       129  POPC      H12S          -27.5773879402      -13.1332760235       -4.8831445327  MEMB      123             0.0000000000
     16351       129  POPC      C213          -29.5301219046      -13.7166071298       -5.7015725993  MEMB      123             0.0000000000
     16352       129  POPC      H13R          -28.9900329252      -14.6678847025       -5.8957269726  MEMB      123             0.0000000000
     16353       129  POPC      H13S          -30.1699115275      -13.5654448704       -6.5971958557  MEMB      123             0.0000000000
     16354       129  POPC      C214          -30.3739201099      -14.0652884060       -4.3423101582  MEMB      123             0.0000000000
     16355       129  POPC      H14R          -30.9143970375      -15.0284719458       -4.4626558022  MEMB      123             0.0000000000
     16356       129  POPC      H14S          -31.0298780444      -13.2422616310       -3.9864074661  MEMB      123             0.0000000000
     16357       129  POPC      C215          -29.5409323582      -14.4080247545       -3.1088068102  MEMB      123             0.0000000000
     16358       129  POPC      H15R          -28.8244956327      -13.5905686373       -2.8790139368  MEMB      123             0.0000000000
     16359       129  POPC      H15S          -28.8234335511      -15.2355197282       -3.2952705420  MEMB      123             0.0000000000
     16360       129  POPC      C216          -30.3109787854      -14.7482306616       -1.8170749568  MEMB      123             0.0000000000
     16361       129  POPC      H16R          -31.0281329321      -15.5243719565       -2.1600281407  MEMB      123             0.0000000000
     16362       129  POPC      H16S          -30.8443764642      -13.8402032014       -1.4631061098  MEMB      123             0.0000000000
     16363       129  POPC      C217          -29.2915722768      -15.2531720719       -0.7912749087  MEMB      123             0.0000000000
     16364       129  POPC      H17R          -28.5084218712      -14.4745506677       -0.6698485011  MEMB      123             0.0000000000
     16365       129  POPC      H17S          -28.7062560411      -16.0554874797       -1.2892870196  MEMB      123             0.0000000000
     16366       129  POPC      C218          -29.7953487720      -15.6640095965        0.5894420384  MEMB      123             0.0000000000
     16367       129  POPC      H18R          -28.9274772844      -16.0029579728        1.1946149926  MEMB      123             0.0000000000
     16368       129  POPC      H18S          -30.4641458378      -16.5314338368        0.4034124930  MEMB      123             0.0000000000
     16369       129  POPC      H18T          -30.1929753595      -14.7377012579        1.0565271042  MEMB      123             0.0000000000
     16370       129  POPC      C33           -33.9744822039      -18.5706146319      -11.6661373568  MEMB      123             0.0000000000
     16371       129  POPC      H3X           -34.9475313523      -18.9595088296      -12.0352681486  MEMB      123             0.0000000000
     16372       129  POPC      H3Y           -34.1744466105      -17.9144810983      -10.7921672873  MEMB      123             0.0000000000
     16373       129  POPC      C34           -32.9209640722      -19.5953011301      -10.9955652819  MEMB      123             0.0000000000
     16374       129  POPC      H4X           -32.4054649740      -20.2245408058      -11.7522942685  MEMB      123             0.0000000000
     16375       129  POPC      H4Y           -33.4054351001      -20.4178541630      -10.4272208744  MEMB      123             0.0000000000
     16376       129  POPC      C35           -31.9331617724      -18.8369827565      -10.0538652536  MEMB      123             0.0000000000
     16377       129  POPC      H5X           -31.4478019452      -17.9925838848      -10.5884093790  MEMB      123             0.0000000000
     16378       129  POPC      H5Y           -31.1338193890      -19.5632557432       -9.7932888275  MEMB      123             0.0000000000
     16379       129  POPC      C36           -32.4172395788      -18.1680102916       -8.7137894493  MEMB      123             0.0000000000
     16380       129  POPC      H6X           -32.9067750628      -17.2117498522       -8.9970592567  MEMB      123             0.0000000000
     16381       129  POPC      H6Y           -31.4255470457      -17.9848071116       -8.2476311245  MEMB      123             0.0000000000
     16382       129  POPC      C37           -33.2504838777      -18.9926309154       -7.7421428095  MEMB      123             0.0000000000
     16383       129  POPC      H7X           -32.7729157301      -19.9867910809       -7.6083696796  MEMB      123             0.0000000000
     16384       129  POPC      H7Y           -34.2862601332      -19.1697831959       -8.1028437054  MEMB      123             0.0000000000
     16385       129  POPC      C38           -33.5473858697      -18.2579911909       -6.4348744145  MEMB      123             0.0000000000
     16386       129  POPC      H8X           -34.3044344565      -17.4531545425       -6.5507905848  MEMB      123             0.0000000000
     16387       129  POPC      H8Y           -32.5831016108      -17.8035199472       -6.1219314643  MEMB      123             0.0000000000
     16388       129  POPC      C39           -34.1130778946      -19.2788518616       -5.4290192924  MEMB      123             0.0000000000
     16389       129  POPC      H9X           -33.3942541108      -19.9651331389       -4.9323997067  MEMB      123             0.0000000000
     16390       129  POPC      H9Y           -34.7108583873      -20.0117281574       -6.0120037387  MEMB      123             0.0000000000
     16391       129  POPC      C310          -35.1345776925      -18.7796698877       -4.4547042732  MEMB      123             0.0000000000
     16392       129  POPC      H10X          -35.5287643664      -19.4356812230       -3.6493552759  MEMB      123             0.0000000000
     16393       129  POPC      H10Y          -36.0033333998      -18.4460653170       -5.0615748667  MEMB      123             0.0000000000
     16394       129  POPC      C311          -34.6148212427      -17.4376908452       -3.7548983302  MEMB      123             0.0000000000
     16395       129  POPC      H11X          -34.5043137007      -16.6697843243       -4.5501528501  MEMB      123             0.0000000000
     16396       129  POPC      H11Y          -33.6383970041      -17.4411432445       -3.2248944043  MEMB      123             0.0000000000
     16397       129  POPC      C312          -35.6174818971      -16.8903124283       -2.7414279115  MEMB      123             0.0000000000
     16398       129  POPC      H12X          -35.7227747379      -17.7131723566       -2.0024170380  MEMB      123             0.0000000000
     16399       129  POPC      H12Y          -36.5928645212      -16.7182576581       -3.2447634975  MEMB      123             0.0000000000
     16400       129  POPC      C313          -35.1237503633      -15.5980110018       -2.0233994539  MEMB      123             0.0000000000
     16401       129  POPC      H13X          -34.0646754289      -15.6860482191       -1.6994693496  MEMB      123             0.0000000000
     16402       129  POPC      H13Y          -35.8269791689      -15.4966678783       -1.1692787884  MEMB      123             0.0000000000
     16403       129  POPC      C314          -35.2709457512      -14.3279790688       -2.7656848820  MEMB      123             0.0000000000
     16404       129  POPC      H14X          -36.2295829065      -14.2891331077       -3.3258870133  MEMB      123             0.0000000000
     16405       129  POPC      H14Y          -34.5320983567      -14.0318708152       -3.5407628872  MEMB      123             0.0000000000
     16406       129  POPC      C315          -35.1896268575      -13.1502937603       -1.7661178110  MEMB      123             0.0000000000
     16407       129  POPC      H15X          -34.3035169962      -13.1728775917       -1.0963274397  MEMB      123             0.0000000000
     16408       129  POPC      H15Y          -36.1118310287      -13.2578291645       -1.1559571556  MEMB      123             0.0000000000
     16409       129  POPC      C316          -35.2791420047      -11.7598759210       -2.4601060281  MEMB      123             0.0000000000
     16410       129  POPC      H16X          -36.2536104669      -11.7001573567       -2.9903568144  MEMB      123             0.0000000000
     16411       129  POPC      H16Y          -34.5126789720      -11.5611528560       -3.2394418418  MEMB      123             0.0000000000
     16412       129  POPC      H16Z          -35.2094274040      -10.8765539206       -1.7898787023  MEMB      123             0.0000000000
     16413       130  POPC      N             -18.4373028476       31.9004599520      -20.1593649250  MEMB      124             0.0000000000
     16414       130  POPC      C12           -18.5014804525       30.4506454958      -20.0077859498  MEMB      124             0.0000000000
     16415       130  POPC      H12A          -17.5204242172       30.0110723142      -19.9043261168  MEMB      124             0.0000000000
     16416       130  POPC      H12B          -18.8844110071       30.1115980671      -20.9590013722  MEMB      124             0.0000000000
     16417       130  POPC      C13           -19.7493718283       32.5713708513      -20.3492175588  MEMB      124             0.0000000000
     16418       130  POPC      H13A          -20.4033860548       32.6832403981      -19.4970728795  MEMB      124             0.0000000000
     16419       130  POPC      H13B          -19.7115431344       33.5027638770      -20.8946313525  MEMB      124             0.0000000000
     16420       130  POPC      H13C          -20.3306106366       31.9832391553      -21.0439569624  MEMB      124             0.0000000000
     16421       130  POPC      C14           -17.7888053237       32.4263612678      -18.8191414862  MEMB      124             0.0000000000
     16422       130  POPC      H14A          -17.4607129027       33.4360170774      -19.0175106860  MEMB      124             0.0000000000
     16423       130  POPC      H14B          -18.4368939195       32.4650195321      -17.9560732890  MEMB      124             0.0000000000
     16424       130  POPC      H14C          -16.8845752786       31.9034097262      -18.5447521385  MEMB      124             0.0000000000
     16425       130  POPC      C15           -17.4982479683       32.2196753770      -21.3206459342  MEMB      124             0.0000000000
     16426       130  POPC      H15A          -16.5574672670       31.7800490353      -21.0238961299  MEMB      124             0.0000000000
     16427       130  POPC      H15B          -17.4512019657       33.2958639400      -21.3981370508  MEMB      124             0.0000000000
     16428       130  POPC      H15C          -17.9760371303       31.8151893007      -22.2007077448  MEMB      124             0.0000000000
     16429       130  POPC      C11           -19.4145022764       29.7909436440      -18.9404810089  MEMB      124             0.0000000000
     16430       130  POPC      H11A          -18.8884631572       30.0607157121      -17.9998286332  MEMB      124             0.0000000000
     16431       130  POPC      H11B          -19.4811807792       28.6819473511      -18.9418461971  MEMB      124             0.0000000000
     16432       130  POPC      P             -21.8475283057       30.1885191688      -17.9254616064  MEMB      124             0.0000000000
     16433       130  POPC      O13           -22.6987821983       29.0368859530      -18.2566740821  MEMB      124             0.0000000000
     16434       130  POPC      O14           -22.5028395564       31.5087570537      -17.5999560048  MEMB      124             0.0000000000
     16435       130  POPC      O12           -20.6774661987       30.4445344311      -18.9929017500  MEMB      124             0.0000000000
     16436       130  POPC      O11           -21.0185979415       29.7312026097      -16.6283696884  MEMB      124             0.0000000000
     16437       130  POPC      C1            -21.2071531813       28.4722806412      -16.0766595366  MEMB      124             0.0000000000
     16438       130  POPC      HA            -20.6876562163       27.7039476163      -16.6883035398  MEMB      124             0.0000000000
     16439       130  POPC      HB            -22.2756604603       28.1695178368      -16.1074478135  MEMB      124             0.0000000000
     16440       130  POPC      C2            -20.7501867216       28.2736340872      -14.6405292272  MEMB      124             0.0000000000
     16441       130  POPC      HS            -20.9374439792       27.2335649040      -14.2977299647  MEMB      124             0.0000000000
     16442       130  POPC      O21           -21.2336100209       29.3222670450      -13.8346789999  MEMB      124             0.0000000000
     16443       130  POPC      C21           -22.3304981236       28.9923178090      -13.0712496478  MEMB      124             0.0000000000
     16444       130  POPC      O22           -22.8011896235       27.8800433572      -13.0406916178  MEMB      124             0.0000000000
     16445       130  POPC      C22           -22.7481121719       30.2370888743      -12.3165614050  MEMB      124             0.0000000000
     16446       130  POPC      H2R           -23.8574802104       30.2951306441      -12.3325103152  MEMB      124             0.0000000000
     16447       130  POPC      H2S           -22.3866192223       31.1847977392      -12.7698737849  MEMB      124             0.0000000000
     16448       130  POPC      C3            -19.1752935084       28.2134418551      -14.5385698417  MEMB      124             0.0000000000
     16449       130  POPC      HX            -18.7024229921       29.1884444428      -14.7836917741  MEMB      124             0.0000000000
     16450       130  POPC      HY            -18.6740991092       27.5490183311      -15.2745498650  MEMB      124             0.0000000000
     16451       130  POPC      O31           -18.7667130072       27.7329889009      -13.2666072683  MEMB      124             0.0000000000
     16452       130  POPC      C31           -18.8700952976       28.6018072827      -12.2728151664  MEMB      124             0.0000000000
     16453       130  POPC      O32           -19.1254207680       29.8217945991      -12.3177104788  MEMB      124             0.0000000000
     16454       130  POPC      C32           -18.3428883390       27.8307531040      -10.9879793957  MEMB      124             0.0000000000
     16455       130  POPC      H2X           -17.5964723983       28.4325597992      -10.4267193374  MEMB      124             0.0000000000
     16456       130  POPC      H2Y           -17.9643062282       26.8257271940      -11.2724428379  MEMB      124             0.0000000000
     16457       130  POPC      C23           -22.2955258948       29.9481041387      -10.8299641643  MEMB      124             0.0000000000
     16458       130  POPC      H3R           -21.4457255358       30.6096356824      -10.5569505847  MEMB      124             0.0000000000
     16459       130  POPC      H3S           -22.0056099452       28.8837014014      -10.6983713569  MEMB      124             0.0000000000
     16460       130  POPC      C24           -23.4990433823       30.1930114528       -9.8762206116  MEMB      124             0.0000000000
     16461       130  POPC      H4R           -24.2723104060       29.4020373366       -9.9798505348  MEMB      124             0.0000000000
     16462       130  POPC      H4S           -24.1151562862       31.0799428945      -10.1371388336  MEMB      124             0.0000000000
     16463       130  POPC      C25           -23.2763720110       30.3826055290       -8.3641443088  MEMB      124             0.0000000000
     16464       130  POPC      H5R           -22.9361717090       29.3894942083       -8.0003931579  MEMB      124             0.0000000000
     16465       130  POPC      H5S           -24.1862906163       30.6572672672       -7.7888793484  MEMB      124             0.0000000000
     16466       130  POPC      C26           -22.3139843112       31.4789211366       -7.9815212914  MEMB      124             0.0000000000
     16467       130  POPC      H6R           -22.7741743556       32.4856559259       -7.8864907945  MEMB      124             0.0000000000
     16468       130  POPC      H6S           -21.4541601950       31.5342597411       -8.6829213846  MEMB      124             0.0000000000
     16469       130  POPC      C27           -21.7891725392       31.2041183057       -6.6337262407  MEMB      124             0.0000000000
     16470       130  POPC      H7R           -21.0994943430       30.3333809227       -6.6117847263  MEMB      124             0.0000000000
     16471       130  POPC      H7S           -22.5730757191       30.9303664643       -5.8955681365  MEMB      124             0.0000000000
     16472       130  POPC      C28           -20.9460429178       32.4108506488       -6.1220735574  MEMB      124             0.0000000000
     16473       130  POPC      H8R           -20.3299464487       32.2159912998       -5.2183165589  MEMB      124             0.0000000000
     16474       130  POPC      H8S           -21.6340999250       33.1195009237       -5.6134346738  MEMB      124             0.0000000000
     16475       130  POPC      C29           -20.0271574528       33.0896352595       -7.1173600310  MEMB      124             0.0000000000
     16476       130  POPC      H91           -20.3165701049       34.0663428338       -7.5324289914  MEMB      124             0.0000000000
     16477       130  POPC      C210          -18.9455943921       32.4468159008       -7.6155630989  MEMB      124             0.0000000000
     16478       130  POPC      H101          -18.2712014811       33.0517616148       -8.2394503017  MEMB      124             0.0000000000
     16479       130  POPC      C211          -18.4280291689       31.0296168915       -7.3041637632  MEMB      124             0.0000000000
     16480       130  POPC      H11R          -18.4769934078       30.3842651179       -8.2071833291  MEMB      124             0.0000000000
     16481       130  POPC      H11S          -18.9781622621       30.5417291375       -6.4713131380  MEMB      124             0.0000000000
     16482       130  POPC      C212          -16.9865052918       31.1110785923       -6.8468872888  MEMB      124             0.0000000000
     16483       130  POPC      H12R          -16.4125070702       31.8234100482       -7.4773088212  MEMB      124             0.0000000000
     16484       130  POPC      H12S          -16.4665990657       30.1299270580       -6.8837664071  MEMB      124             0.0000000000
     16485       130  POPC      C213          -16.7130087554       31.7789089449       -5.4250486090  MEMB      124             0.0000000000
     16486       130  POPC      H13R          -17.1233219825       32.8090368118       -5.4943350710  MEMB      124             0.0000000000
     16487       130  POPC      H13S          -15.6225506356       31.7664920567       -5.2127564651  MEMB      124             0.0000000000
     16488       130  POPC      C214          -17.4633801656       31.0925723277       -4.2291333024  MEMB      124             0.0000000000
     16489       130  POPC      H14R          -17.2086790735       30.0111711838       -4.2336133904  MEMB      124             0.0000000000
     16490       130  POPC      H14S          -18.5429669729       31.3539093916       -4.2518566880  MEMB      124             0.0000000000
     16491       130  POPC      C215          -16.8087049468       31.7787679351       -3.0137827359  MEMB      124             0.0000000000
     16492       130  POPC      H15R          -16.9567871015       32.8698487172       -3.1618893551  MEMB      124             0.0000000000
     16493       130  POPC      H15S          -15.7241240751       31.5660740380       -2.9007943177  MEMB      124             0.0000000000
     16494       130  POPC      C216          -17.5328973602       31.4753373624       -1.7146541227  MEMB      124             0.0000000000
     16495       130  POPC      H16R          -17.4318106758       30.3903926653       -1.4978663716  MEMB      124             0.0000000000
     16496       130  POPC      H16S          -18.6323520553       31.6345676285       -1.7275420891  MEMB      124             0.0000000000
     16497       130  POPC      C217          -16.9843147598       32.2083471991       -0.4999418774  MEMB      124             0.0000000000
     16498       130  POPC      H17R          -17.0542967265       33.2887109462       -0.7494160917  MEMB      124             0.0000000000
     16499       130  POPC      H17S          -15.9300972213       31.9153377827       -0.3073496481  MEMB      124             0.0000000000
     16500       130  POPC      C218          -17.8552471643       31.9319394930        0.8434784435  MEMB      124             0.0000000000
     16501       130  POPC      H18R          -17.4097356031       32.4518766433        1.7184102915  MEMB      124             0.0000000000
     16502       130  POPC      H18S          -17.7389084953       30.8745534790        1.1639784377  MEMB      124             0.0000000000
     16503       130  POPC      H18T          -18.9427134116       32.1589237085        0.8287621776  MEMB      124             0.0000000000
     16504       130  POPC      C33           -19.5176836576       27.5886406606      -10.0188230608  MEMB      124             0.0000000000
     16505       130  POPC      H3X           -20.2053707697       26.8119508788      -10.4165167241  MEMB      124             0.0000000000
     16506       130  POPC      H3Y           -20.0639523199       28.5533365293       -9.9462046714  MEMB      124             0.0000000000
     16507       130  POPC      C34           -19.0991101057       27.2620309820       -8.5842423649  MEMB      124             0.0000000000
     16508       130  POPC      H4X           -18.6118006759       28.1084970586       -8.0547651353  MEMB      124             0.0000000000
     16509       130  POPC      H4Y           -18.4522083262       26.3606033675       -8.6414021224  MEMB      124             0.0000000000
     16510       130  POPC      C35           -20.3441781228       27.0057095109       -7.7575543575  MEMB      124             0.0000000000
     16511       130  POPC      H5X           -20.7080689109       25.9868424143       -8.0101686049  MEMB      124             0.0000000000
     16512       130  POPC      H5Y           -21.1308489382       27.7020787612       -8.1188583119  MEMB      124             0.0000000000
     16513       130  POPC      C36           -20.0362872817       27.0796718158       -6.2562520513  MEMB      124             0.0000000000
     16514       130  POPC      H6X           -19.7856238175       28.1182689813       -5.9516134890  MEMB      124             0.0000000000
     16515       130  POPC      H6Y           -19.1254706727       26.4691393162       -6.0774106924  MEMB      124             0.0000000000
     16516       130  POPC      C37           -21.1405028440       26.4852818907       -5.4622053739  MEMB      124             0.0000000000
     16517       130  POPC      H7X           -21.3552532087       25.4841900461       -5.8935043280  MEMB      124             0.0000000000
     16518       130  POPC      H7Y           -22.0197459593       27.1570508894       -5.5620993334  MEMB      124             0.0000000000
     16519       130  POPC      C38           -20.8315114233       26.4008606806       -3.9783130065  MEMB      124             0.0000000000
     16520       130  POPC      H8X           -19.8835243484       25.8228635704       -3.9388074127  MEMB      124             0.0000000000
     16521       130  POPC      H8Y           -21.6332553838       25.8296292261       -3.4633153445  MEMB      124             0.0000000000
     16522       130  POPC      C39           -20.5044383645       27.6850228080       -3.2733685931  MEMB      124             0.0000000000
     16523       130  POPC      H9X           -19.4861491176       28.0142882972       -3.5716848153  MEMB      124             0.0000000000
     16524       130  POPC      H9Y           -20.4474524812       27.5705233387       -2.1697547746  MEMB      124             0.0000000000
     16525       130  POPC      C310          -21.4637553834       28.8645508466       -3.5386281870  MEMB      124             0.0000000000
     16526       130  POPC      H10X          -22.5461564698       28.6153004453       -3.5140698548  MEMB      124             0.0000000000
     16527       130  POPC      H10Y          -21.1996789815       29.2005590221       -4.5641439543  MEMB      124             0.0000000000
     16528       130  POPC      C311          -21.2425365660       30.1559689133       -2.6195738112  MEMB      124             0.0000000000
     16529       130  POPC      H11X          -21.9893464231       30.9232033726       -2.9161322136  MEMB      124             0.0000000000
     16530       130  POPC      H11Y          -20.2223405445       30.5748886654       -2.7538390868  MEMB      124             0.0000000000
     16531       130  POPC      C312          -21.5375770698       29.8453989493       -1.1050407839  MEMB      124             0.0000000000
     16532       130  POPC      H12X          -21.0894768717       30.7285505888       -0.6014839450  MEMB      124             0.0000000000
     16533       130  POPC      H12Y          -20.9241423638       28.9868004414       -0.7574380212  MEMB      124             0.0000000000
     16534       130  POPC      C313          -23.0215103679       29.5316408082       -0.7676351845  MEMB      124             0.0000000000
     16535       130  POPC      H13X          -23.1399236672       29.1576211647        0.2717912793  MEMB      124             0.0000000000
     16536       130  POPC      H13Y          -23.3215152447       28.7500658332       -1.4980177591  MEMB      124             0.0000000000
     16537       130  POPC      C314          -23.9502471945       30.7237869325       -0.9004252646  MEMB      124             0.0000000000
     16538       130  POPC      H14X          -24.9875812009       30.4209728094       -0.6424300218  MEMB      124             0.0000000000
     16539       130  POPC      H14Y          -23.9001715918       30.8972833432       -1.9966531734  MEMB      124             0.0000000000
     16540       130  POPC      C315          -23.6070633236       31.8587075429        0.0103426641  MEMB      124             0.0000000000
     16541       130  POPC      H15X          -24.3578502046       32.6538892703       -0.1854284573  MEMB      124             0.0000000000
     16542       130  POPC      H15Y          -22.7148812863       32.2935432149       -0.4889073234  MEMB      124             0.0000000000
     16543       130  POPC      C316          -23.4682792194       31.6590163735        1.5211077369  MEMB      124             0.0000000000
     16544       130  POPC      H16X          -24.4479820783       31.3475142682        1.9423797887  MEMB      124             0.0000000000
     16545       130  POPC      H16Y          -23.1707605307       32.6575810797        1.9066879983  MEMB      124             0.0000000000
     16546       130  POPC      H16Z          -22.7022389214       30.8847612291        1.7402722996  MEMB      124             0.0000000000
     16547       131  POPC      N              24.1729584041      -30.0072717613      -17.9687811019  MEMB      125             0.0000000000
     16548       131  POPC      C12            23.2756171696      -29.1191644529      -18.7789687992  MEMB      125             0.0000000000
     16549       131  POPC      H12A           22.8870701204      -28.3552118517      -18.1218480624  MEMB      125             0.0000000000
     16550       131  POPC      H12B           22.4895432865      -29.7432728098      -19.1776875591  MEMB      125             0.0000000000
     16551       131  POPC      C13            25.3111870224      -29.4043331629      -17.2506659093  MEMB      125             0.0000000000
     16552       131  POPC      H13A           25.8899222278      -30.2399752488      -16.8857442551  MEMB      125             0.0000000000
     16553       131  POPC      H13B           25.9127646322      -28.8518314164      -17.9572394525  MEMB      125             0.0000000000
     16554       131  POPC      H13C           24.9902030372      -28.7157017908      -16.4831008064  MEMB      125             0.0000000000
     16555       131  POPC      C14            23.2984699677      -30.5542508387      -16.9171358184  MEMB      125             0.0000000000
     16556       131  POPC      H14A           22.3993196044      -30.9964747448      -17.3200830472  MEMB      125             0.0000000000
     16557       131  POPC      H14B           23.8241483338      -31.3616441310      -16.4291006428  MEMB      125             0.0000000000
     16558       131  POPC      H14C           23.0522955765      -29.8471735054      -16.1387786149  MEMB      125             0.0000000000
     16559       131  POPC      C15            24.7069340663      -31.1155267133      -18.8376860852  MEMB      125             0.0000000000
     16560       131  POPC      H15A           25.4973919457      -30.7879015699      -19.4966535488  MEMB      125             0.0000000000
     16561       131  POPC      H15B           23.9822055046      -31.4162693112      -19.5797928126  MEMB      125             0.0000000000
     16562       131  POPC      H15C           25.0244830877      -32.0115058519      -18.3250612895  MEMB      125             0.0000000000
     16563       131  POPC      C11            23.8911028324      -28.4567240478      -20.0372139444  MEMB      125             0.0000000000
     16564       131  POPC      H11A           23.1934231572      -27.6804876386      -20.4180303716  MEMB      125             0.0000000000
     16565       131  POPC      H11B           23.8743136114      -29.2861330021      -20.7762131787  MEMB      125             0.0000000000
     16566       131  POPC      P              25.5680058508      -26.4390106741      -19.9247175211  MEMB      125             0.0000000000
     16567       131  POPC      O13            24.9970551414      -25.7521388171      -21.1259212030  MEMB      125             0.0000000000
     16568       131  POPC      O14            26.9877107024      -26.1966018152      -19.6763788084  MEMB      125             0.0000000000
     16569       131  POPC      O12            25.2239247980      -27.9742755774      -19.7814155419  MEMB      125             0.0000000000
     16570       131  POPC      O11            24.7408292610      -25.9892582149      -18.7011152289  MEMB      125             0.0000000000
     16571       131  POPC      C1             24.3496520499      -24.6338835433      -18.5280913011  MEMB      125             0.0000000000
     16572       131  POPC      HA             23.2437954246      -24.5330082316      -18.4930745603  MEMB      125             0.0000000000
     16573       131  POPC      HB             24.8383870650      -24.0102458201      -19.3068948768  MEMB      125             0.0000000000
     16574       131  POPC      C2             24.8022386736      -24.0470547848      -17.1048544383  MEMB      125             0.0000000000
     16575       131  POPC      HS             24.8990011286      -22.9422560373      -17.1710200951  MEMB      125             0.0000000000
     16576       131  POPC      O21            26.0907680527      -24.6274743326      -16.7643339248  MEMB      125             0.0000000000
     16577       131  POPC      C21            26.6733675775      -23.9725488658      -15.7618872440  MEMB      125             0.0000000000
     16578       131  POPC      O22            26.3734090728      -22.8475463602      -15.4083630917  MEMB      125             0.0000000000
     16579       131  POPC      C22            27.8815592678      -24.7616432998      -15.1848477619  MEMB      125             0.0000000000
     16580       131  POPC      H2R            28.1880540534      -24.3463756866      -14.2010110860  MEMB      125             0.0000000000
     16581       131  POPC      H2S            28.7398685241      -24.4769654011      -15.8302809733  MEMB      125             0.0000000000
     16582       131  POPC      C3             23.8316573830      -24.2041933076      -15.9339022804  MEMB      125             0.0000000000
     16583       131  POPC      HX             22.8374542035      -23.9414439500      -16.3544305475  MEMB      125             0.0000000000
     16584       131  POPC      HY             23.9941516694      -23.5204557329      -15.0734258677  MEMB      125             0.0000000000
     16585       131  POPC      O31            23.8023064806      -25.5818290948      -15.3999950170  MEMB      125             0.0000000000
     16586       131  POPC      C31            23.6042449720      -25.7119997182      -14.1271110420  MEMB      125             0.0000000000
     16587       131  POPC      O32            23.0646534254      -24.9179601537      -13.3770669527  MEMB      125             0.0000000000
     16588       131  POPC      C32            24.0993946056      -27.1516267594      -13.7256519801  MEMB      125             0.0000000000
     16589       131  POPC      H2X            25.2026671757      -27.2373084616      -13.8244918167  MEMB      125             0.0000000000
     16590       131  POPC      H2Y            23.6354586852      -27.9249357235      -14.3745570899  MEMB      125             0.0000000000
     16591       131  POPC      C23            27.8962329334      -26.2400023783      -15.3241907166  MEMB      125             0.0000000000
     16592       131  POPC      H3R            27.7422647686      -26.5138641322      -16.3898430026  MEMB      125             0.0000000000
     16593       131  POPC      H3S            27.0612400247      -26.6870304812      -14.7434379435  MEMB      125             0.0000000000
     16594       131  POPC      C24            29.1921358667      -26.9204585745      -14.9314936236  MEMB      125             0.0000000000
     16595       131  POPC      H4R            30.0144192643      -26.4944859117      -15.5452675509  MEMB      125             0.0000000000
     16596       131  POPC      H4S            29.0957245829      -28.0018203225      -15.1674658062  MEMB      125             0.0000000000
     16597       131  POPC      C25            29.5559779111      -26.8841303248      -13.4372579275  MEMB      125             0.0000000000
     16598       131  POPC      H5R            28.7013083906      -27.0935895566      -12.7590338444  MEMB      125             0.0000000000
     16599       131  POPC      H5S            29.9499738105      -25.9017473448      -13.0996010977  MEMB      125             0.0000000000
     16600       131  POPC      C26            30.4800512119      -27.9639855473      -12.8885995289  MEMB      125             0.0000000000
     16601       131  POPC      H6R            31.4567344555      -27.8872929855      -13.4125544887  MEMB      125             0.0000000000
     16602       131  POPC      H6S            30.0023914131      -28.9279132423      -13.1660982606  MEMB      125             0.0000000000
     16603       131  POPC      C27            30.8290658644      -27.8466404121      -11.4076823689  MEMB      125             0.0000000000
     16604       131  POPC      H7R            31.3791398278      -26.8928236287      -11.2594512507  MEMB      125             0.0000000000
     16605       131  POPC      H7S            31.6063389546      -28.6130927235      -11.2009982001  MEMB      125             0.0000000000
     16606       131  POPC      C28            29.6008106959      -28.1172272080      -10.4125213902  MEMB      125             0.0000000000
     16607       131  POPC      H8R            29.0900074095      -28.9956085668      -10.8617955588  MEMB      125             0.0000000000
     16608       131  POPC      H8S            28.9139875965      -27.2446234105      -10.4465462214  MEMB      125             0.0000000000
     16609       131  POPC      C29            30.0698438389      -28.3483292572       -9.0041949615  MEMB      125             0.0000000000
     16610       131  POPC      H91            30.6104464248      -29.2930722959       -8.8454211178  MEMB      125             0.0000000000
     16611       131  POPC      C210           29.9381691861      -27.4946276199       -7.9735212715  MEMB      125             0.0000000000
     16612       131  POPC      H101           30.6233082339      -27.7732988171       -7.1593174772  MEMB      125             0.0000000000
     16613       131  POPC      C211           29.3323779554      -26.0484927355       -7.9370517994  MEMB      125             0.0000000000
     16614       131  POPC      H11R           28.6657292219      -25.8443614937       -8.8020550883  MEMB      125             0.0000000000
     16615       131  POPC      H11S           30.2171631369      -25.3770228504       -7.9616322749  MEMB      125             0.0000000000
     16616       131  POPC      C212           28.7148042676      -25.7231253564       -6.5848154803  MEMB      125             0.0000000000
     16617       131  POPC      H12R           28.4451041739      -24.6620655265       -6.3957782700  MEMB      125             0.0000000000
     16618       131  POPC      H12S           29.4734681781      -25.9606133166       -5.8087032343  MEMB      125             0.0000000000
     16619       131  POPC      C213           27.3487922953      -26.4067071681       -6.4173225963  MEMB      125             0.0000000000
     16620       131  POPC      H13R           27.4972717635      -27.4901725623       -6.2214213165  MEMB      125             0.0000000000
     16621       131  POPC      H13S           26.8382117882      -26.2474242754       -7.3911075115  MEMB      125             0.0000000000
     16622       131  POPC      C214           26.5243433800      -25.8327265428       -5.2543991406  MEMB      125             0.0000000000
     16623       131  POPC      H14R           25.4373910562      -26.0625198214       -5.2472803430  MEMB      125             0.0000000000
     16624       131  POPC      H14S           26.6509491325      -24.7291300391       -5.2352486620  MEMB      125             0.0000000000
     16625       131  POPC      C215           27.1763413904      -26.1256306170       -3.8827610334  MEMB      125             0.0000000000
     16626       131  POPC      H15R           26.8588017047      -25.4046403080       -3.0993948734  MEMB      125             0.0000000000
     16627       131  POPC      H15S           28.2672286293      -26.0177450760       -4.0634455380  MEMB      125             0.0000000000
     16628       131  POPC      C216           27.0758001660      -27.5836747153       -3.4448332595  MEMB      125             0.0000000000
     16629       131  POPC      H16R           27.5775299766      -28.2126414062       -4.2109858745  MEMB      125             0.0000000000
     16630       131  POPC      H16S           25.9800846635      -27.7667819479       -3.4589816961  MEMB      125             0.0000000000
     16631       131  POPC      C217           27.5750928889      -28.0156441092       -2.0183777285  MEMB      125             0.0000000000
     16632       131  POPC      H17R           28.6820443148      -27.9496821209       -2.0864100671  MEMB      125             0.0000000000
     16633       131  POPC      H17S           27.2027835477      -29.0618184056       -2.0533898495  MEMB      125             0.0000000000
     16634       131  POPC      C218           26.9588156722      -27.3054170985       -0.8001371227  MEMB      125             0.0000000000
     16635       131  POPC      H18R           25.8857852874      -27.5908857798       -0.7622635139  MEMB      125             0.0000000000
     16636       131  POPC      H18S           26.8434236030      -26.2027080997       -0.8711183083  MEMB      125             0.0000000000
     16637       131  POPC      H18T           27.5104043613      -27.5267180588        0.1385309442  MEMB      125             0.0000000000
     16638       131  POPC      C33            23.8070150585      -27.5244153290      -12.2898234894  MEMB      125             0.0000000000
     16639       131  POPC      H3X            22.7664987670      -27.2653062129      -11.9991189520  MEMB      125             0.0000000000
     16640       131  POPC      H3Y            24.4181305711      -26.8250992950      -11.6800560495  MEMB      125             0.0000000000
     16641       131  POPC      C34            24.1503364206      -29.0347801638      -12.0646789991  MEMB      125             0.0000000000
     16642       131  POPC      H4X            25.1473831403      -29.2395296750      -12.5099837654  MEMB      125             0.0000000000
     16643       131  POPC      H4Y            23.2263520708      -29.4798076199      -12.4919081111  MEMB      125             0.0000000000
     16644       131  POPC      C35            24.3471081761      -29.5285324786      -10.5824613366  MEMB      125             0.0000000000
     16645       131  POPC      H5X            24.4232595959      -30.6351682228      -10.6447486262  MEMB      125             0.0000000000
     16646       131  POPC      H5Y            23.4402609161      -29.4802170108       -9.9424498983  MEMB      125             0.0000000000
     16647       131  POPC      C36            25.4948982825      -28.8383374873       -9.9015955164  MEMB      125             0.0000000000
     16648       131  POPC      H6X            25.2183611884      -27.7795279205       -9.7098388763  MEMB      125             0.0000000000
     16649       131  POPC      H6Y            26.2887592052      -28.8565356063      -10.6786250825  MEMB      125             0.0000000000
     16650       131  POPC      C37            25.9679180776      -29.5620428974       -8.6314790130  MEMB      125             0.0000000000
     16651       131  POPC      H7X            26.8181157310      -29.0611707178       -8.1209775262  MEMB      125             0.0000000000
     16652       131  POPC      H7Y            26.3959853293      -30.5019083136       -9.0410295245  MEMB      125             0.0000000000
     16653       131  POPC      C38            24.9545909241      -29.8442383306       -7.5872242886  MEMB      125             0.0000000000
     16654       131  POPC      H8X            25.4935505319      -30.4192512374       -6.8041515853  MEMB      125             0.0000000000
     16655       131  POPC      H8Y            24.2706998050      -30.5161089957       -8.1486541747  MEMB      125             0.0000000000
     16656       131  POPC      C39            24.3054074149      -28.6844783534       -6.8277723412  MEMB      125             0.0000000000
     16657       131  POPC      H9X            23.9931511044      -27.8035511136       -7.4284253662  MEMB      125             0.0000000000
     16658       131  POPC      H9Y            25.0508237567      -28.4241014353       -6.0461843507  MEMB      125             0.0000000000
     16659       131  POPC      C310           23.0505882365      -29.0091395635       -6.0884510763  MEMB      125             0.0000000000
     16660       131  POPC      H10X           23.1629474943      -29.6756987935       -5.2067502930  MEMB      125             0.0000000000
     16661       131  POPC      H10Y           22.3812597940      -29.5375088086       -6.8005924376  MEMB      125             0.0000000000
     16662       131  POPC      C311           22.2310426314      -27.7887977297       -5.6059385235  MEMB      125             0.0000000000
     16663       131  POPC      H11X           21.1783462247      -28.1092936064       -5.4528584783  MEMB      125             0.0000000000
     16664       131  POPC      H11Y           22.2664702573      -27.0034052836       -6.3909382825  MEMB      125             0.0000000000
     16665       131  POPC      C312           22.8155318336      -27.2989631639       -4.2724286442  MEMB      125             0.0000000000
     16666       131  POPC      H12X           23.8468360155      -26.9208964661       -4.4391569743  MEMB      125             0.0000000000
     16667       131  POPC      H12Y           22.7767134963      -28.2459037507       -3.6926722689  MEMB      125             0.0000000000
     16668       131  POPC      C313           21.8931787426      -26.2558121537       -3.6315639173  MEMB      125             0.0000000000
     16669       131  POPC      H13X           20.9543873869      -26.8278447263       -3.4710316034  MEMB      125             0.0000000000
     16670       131  POPC      H13Y           21.6029481232      -25.4688834289       -4.3601449763  MEMB      125             0.0000000000
     16671       131  POPC      C314           22.2832613524      -25.6050786380       -2.3193435019  MEMB      125             0.0000000000
     16672       131  POPC      H14X           23.3261612426      -25.2261224922       -2.3747770744  MEMB      125             0.0000000000
     16673       131  POPC      H14Y           22.1761013794      -26.3681055901       -1.5189511615  MEMB      125             0.0000000000
     16674       131  POPC      C315           21.4263925940      -24.4163135282       -1.8730930304  MEMB      125             0.0000000000
     16675       131  POPC      H15X           21.3703933246      -23.6565159988       -2.6817292888  MEMB      125             0.0000000000
     16676       131  POPC      H15Y           21.9956068121      -23.9117944912       -1.0632936393  MEMB      125             0.0000000000
     16677       131  POPC      C316           20.0849978680      -24.7412496444       -1.2319190026  MEMB      125             0.0000000000
     16678       131  POPC      H16X           19.4599483492      -25.3095436706       -1.9534988682  MEMB      125             0.0000000000
     16679       131  POPC      H16Y           19.6159091709      -23.7413019910       -1.1119986598  MEMB      125             0.0000000000
     16680       131  POPC      H16Z           20.1124081395      -25.3163381701       -0.2817396891  MEMB      125             0.0000000000
     16681       132  POPC      N              30.2333911954       21.7863101287      -17.8306139351  MEMB      126             0.0000000000
     16682       132  POPC      C12            30.2327763038       21.6997293003      -19.3752732370  MEMB      126             0.0000000000
     16683       132  POPC      H12A           29.5530805989       20.9637483821      -19.7786907614  MEMB      126             0.0000000000
     16684       132  POPC      H12B           31.2289475901       21.3698458136      -19.6306549240  MEMB      126             0.0000000000
     16685       132  POPC      C13            28.9671518459       22.5895811344      -17.3910015952  MEMB      126             0.0000000000
     16686       132  POPC      H13A           28.0928076279       21.9678623933      -17.5150489254  MEMB      126             0.0000000000
     16687       132  POPC      H13B           29.0167918947       23.0330280411      -16.4074923747  MEMB      126             0.0000000000
     16688       132  POPC      H13C           28.8239406040       23.4266395882      -18.0582525641  MEMB      126             0.0000000000
     16689       132  POPC      C14            30.3257558858       20.4336779705      -17.2255020142  MEMB      126             0.0000000000
     16690       132  POPC      H14A           29.3389066294       20.0253263367      -17.3860554228  MEMB      126             0.0000000000
     16691       132  POPC      H14B           31.0088489088       19.8586217650      -17.8330332551  MEMB      126             0.0000000000
     16692       132  POPC      H14C           30.4507714118       20.3397839978      -16.1568788506  MEMB      126             0.0000000000
     16693       132  POPC      C15            31.4735283115       22.5762892493      -17.4618290137  MEMB      126             0.0000000000
     16694       132  POPC      H15A           32.4183472000       22.1464417733      -17.7600710909  MEMB      126             0.0000000000
     16695       132  POPC      H15B           31.5547194534       22.6843979096      -16.3903251729  MEMB      126             0.0000000000
     16696       132  POPC      H15C           31.3603814266       23.6127406569      -17.7435490016  MEMB      126             0.0000000000
     16697       132  POPC      C11            29.9047197981       23.0111815758      -20.1042529449  MEMB      126             0.0000000000
     16698       132  POPC      H11A           28.8521577783       23.2905308534      -19.8842572786  MEMB      126             0.0000000000
     16699       132  POPC      H11B           30.2101057354       22.8210973605      -21.1554087418  MEMB      126             0.0000000000
     16700       132  POPC      P              30.4137509301       25.5473662953      -19.9177223004  MEMB      126             0.0000000000
     16701       132  POPC      O13            30.4811041512       25.6561725275      -21.3444785052  MEMB      126             0.0000000000
     16702       132  POPC      O14            31.2102358610       26.4206185317      -19.0995686377  MEMB      126             0.0000000000
     16703       132  POPC      O12            30.7355723603       24.1016105805      -19.6410636299  MEMB      126             0.0000000000
     16704       132  POPC      O11            28.8330685309       25.6007495683      -19.6086941360  MEMB      126             0.0000000000
     16705       132  POPC      C1             28.2312758573       26.8444946577      -19.3532672892  MEMB      126             0.0000000000
     16706       132  POPC      HA             27.2136365258       26.9008117459      -19.7954886816  MEMB      126             0.0000000000
     16707       132  POPC      HB             28.7942130690       27.6609764504      -19.8540467286  MEMB      126             0.0000000000
     16708       132  POPC      C2             27.9319276634       27.1151833724      -17.8289265857  MEMB      126             0.0000000000
     16709       132  POPC      HS             27.4432312260       28.0896020461      -17.6144378241  MEMB      126             0.0000000000
     16710       132  POPC      O21            29.1181673779       27.0916355741      -16.9634729697  MEMB      126             0.0000000000
     16711       132  POPC      C21            29.8737971960       28.0809519584      -17.0657541542  MEMB      126             0.0000000000
     16712       132  POPC      O22            29.7216445017       29.0146724822      -17.8516441657  MEMB      126             0.0000000000
     16713       132  POPC      C22            30.8764752827       28.1059845319      -15.9494842399  MEMB      126             0.0000000000
     16714       132  POPC      H2R            31.6789827447       28.8604029014      -16.0949332779  MEMB      126             0.0000000000
     16715       132  POPC      H2S            31.4291521753       27.1574631154      -15.7786726099  MEMB      126             0.0000000000
     16716       132  POPC      C3             26.9453257698       26.0625522659      -17.3098824575  MEMB      126             0.0000000000
     16717       132  POPC      HX             27.4129315344       25.0549342542      -17.3291633955  MEMB      126             0.0000000000
     16718       132  POPC      HY             26.0212089730       26.0222399306      -17.9252720154  MEMB      126             0.0000000000
     16719       132  POPC      O31            26.5431088296       26.3737933735      -16.0290313211  MEMB      126             0.0000000000
     16720       132  POPC      C31            26.9563726814       25.7504898486      -14.9641239076  MEMB      126             0.0000000000
     16721       132  POPC      O32            27.8408880945       24.9071316975      -14.9736392957  MEMB      126             0.0000000000
     16722       132  POPC      C32            26.2727823196       26.1468825567      -13.6812184692  MEMB      126             0.0000000000
     16723       132  POPC      H2X            25.2631191487       25.6866209483      -13.6259018251  MEMB      126             0.0000000000
     16724       132  POPC      H2Y            26.1425480837       27.2480607695      -13.6121809941  MEMB      126             0.0000000000
     16725       132  POPC      C23            30.2757758520       28.4995657154      -14.6062745771  MEMB      126             0.0000000000
     16726       132  POPC      H3R            29.4041887687       27.8257046096      -14.4628578125  MEMB      126             0.0000000000
     16727       132  POPC      H3S            29.8544440547       29.5023349217      -14.8326694093  MEMB      126             0.0000000000
     16728       132  POPC      C24            31.2131267827       28.5253343458      -13.4093269334  MEMB      126             0.0000000000
     16729       132  POPC      H4R            30.6346099312       28.9911985430      -12.5831248743  MEMB      126             0.0000000000
     16730       132  POPC      H4S            31.9731957476       29.2889591899      -13.6804220963  MEMB      126             0.0000000000
     16731       132  POPC      C25            31.9348864988       27.2429800100      -13.0170202300  MEMB      126             0.0000000000
     16732       132  POPC      H5R            32.8041075625       27.5295654482      -12.3872227334  MEMB      126             0.0000000000
     16733       132  POPC      H5S            32.3924985237       26.7010258598      -13.8721210597  MEMB      126             0.0000000000
     16734       132  POPC      C26            31.0685100243       26.2111442220      -12.2493934560  MEMB      126             0.0000000000
     16735       132  POPC      H6R            30.0441612571       26.0375744209      -12.6429721718  MEMB      126             0.0000000000
     16736       132  POPC      H6S            30.8934262118       26.7655451935      -11.3026588772  MEMB      126             0.0000000000
     16737       132  POPC      C27            31.6844372746       24.8778090497      -12.1125528698  MEMB      126             0.0000000000
     16738       132  POPC      H7R            32.6230198380       24.9914396774      -11.5290531172  MEMB      126             0.0000000000
     16739       132  POPC      H7S            31.9540326809       24.5743687849      -13.1467501190  MEMB      126             0.0000000000
     16740       132  POPC      C28            30.7069245254       23.7993914628      -11.4283698927  MEMB      126             0.0000000000
     16741       132  POPC      H8R            29.8983480925       23.5943586170      -12.1621867602  MEMB      126             0.0000000000
     16742       132  POPC      H8S            30.3674672739       24.2794007346      -10.4856710391  MEMB      126             0.0000000000
     16743       132  POPC      C29            31.3658982569       22.5396869897      -11.0381417556  MEMB      126             0.0000000000
     16744       132  POPC      H91            31.5633944192       21.8712296868      -11.8891177080  MEMB      126             0.0000000000
     16745       132  POPC      C210           31.6709129454       22.1269906925       -9.8100175349  MEMB      126             0.0000000000
     16746       132  POPC      H101           32.3195193113       21.2744217392       -9.5601451969  MEMB      126             0.0000000000
     16747       132  POPC      C211           31.3737880790       23.0668157611       -8.6529056983  MEMB      126             0.0000000000
     16748       132  POPC      H11R           31.8914768151       24.0277143301       -8.8602547366  MEMB      126             0.0000000000
     16749       132  POPC      H11S           31.7595502604       22.7155548607       -7.6720261930  MEMB      126             0.0000000000
     16750       132  POPC      C212           29.8771485009       23.2471659813       -8.3630333347  MEMB      126             0.0000000000
     16751       132  POPC      H12R           29.2261208315       23.0452008299       -9.2403547768  MEMB      126             0.0000000000
     16752       132  POPC      H12S           29.7248865982       24.2777108995       -7.9768794524  MEMB      126             0.0000000000
     16753       132  POPC      C213           29.2809975256       22.2349915527       -7.3894472768  MEMB      126             0.0000000000
     16754       132  POPC      H13R           29.8068371149       21.2746759143       -7.5781463808  MEMB      126             0.0000000000
     16755       132  POPC      H13S           28.2061502891       22.1234924372       -7.6475021999  MEMB      126             0.0000000000
     16756       132  POPC      C214           29.3943558576       22.6060537372       -5.9060793284  MEMB      126             0.0000000000
     16757       132  POPC      H14R           29.0628965001       23.6254908193       -5.6141826877  MEMB      126             0.0000000000
     16758       132  POPC      H14S           30.4570530543       22.4348556757       -5.6309662910  MEMB      126             0.0000000000
     16759       132  POPC      C215           28.3945879921       21.8190289185       -5.0510956309  MEMB      126             0.0000000000
     16760       132  POPC      H15R           28.4814348064       20.7162632830       -5.1544702926  MEMB      126             0.0000000000
     16761       132  POPC      H15S           27.3111717422       21.9613695202       -5.2517679260  MEMB      126             0.0000000000
     16762       132  POPC      C216           28.5812234826       21.8108782207       -3.4907852665  MEMB      126             0.0000000000
     16763       132  POPC      H16R           29.6499939763       21.8382655488       -3.1886258674  MEMB      126             0.0000000000
     16764       132  POPC      H16S           28.1290162240       20.8973648378       -3.0488319892  MEMB      126             0.0000000000
     16765       132  POPC      C217           27.8089285510       22.9566528664       -2.7696016010  MEMB      126             0.0000000000
     16766       132  POPC      H17R           26.8164475839       23.1159508101       -3.2428096996  MEMB      126             0.0000000000
     16767       132  POPC      H17S           28.4371460729       23.8673084777       -2.8714343581  MEMB      126             0.0000000000
     16768       132  POPC      C218           27.5355606105       22.6319708407       -1.2527714984  MEMB      126             0.0000000000
     16769       132  POPC      H18R           28.4884939584       22.4536625417       -0.7101423213  MEMB      126             0.0000000000
     16770       132  POPC      H18S           27.0084016842       21.6582787430       -1.3441360046  MEMB      126             0.0000000000
     16771       132  POPC      H18T           27.0024694396       23.4214003683       -0.6809871403  MEMB      126             0.0000000000
     16772       132  POPC      C33            27.1739945964       25.6734231676      -12.5075265182  MEMB      126             0.0000000000
     16773       132  POPC      H3X            28.0832842123       26.3116200841      -12.5222992390  MEMB      126             0.0000000000
     16774       132  POPC      H3Y            27.4267183779       24.5918881776      -12.4804342883  MEMB      126             0.0000000000
     16775       132  POPC      C34            26.5576024319       26.0886165167      -11.1587266363  MEMB      126             0.0000000000
     16776       132  POPC      H4X            25.6017373809       25.5833808988      -10.9030313180  MEMB      126             0.0000000000
     16777       132  POPC      H4Y            26.2117981927       27.1428972817      -11.2155803616  MEMB      126             0.0000000000
     16778       132  POPC      C35            27.4826479775       25.9184444450       -9.8667779846  MEMB      126             0.0000000000
     16779       132  POPC      H5X            28.5474538133       26.1086049254      -10.1204489404  MEMB      126             0.0000000000
     16780       132  POPC      H5Y            27.3876184284       24.8643524100       -9.5288728191  MEMB      126             0.0000000000
     16781       132  POPC      C36            26.9858552824       26.9111829600       -8.8096230672  MEMB      126             0.0000000000
     16782       132  POPC      H6X            25.9251800127       26.8672552257       -8.4819651730  MEMB      126             0.0000000000
     16783       132  POPC      H6Y            27.1203357915       27.9717048728       -9.1121612719  MEMB      126             0.0000000000
     16784       132  POPC      C37            27.8481486070       26.8384282388       -7.5081176565  MEMB      126             0.0000000000
     16785       132  POPC      H7X            27.9488926115       25.7920830729       -7.1484880875  MEMB      126             0.0000000000
     16786       132  POPC      H7Y            27.2733030439       27.2158778736       -6.6355322306  MEMB      126             0.0000000000
     16787       132  POPC      C38            29.2898633579       27.2919626619       -7.4894971268  MEMB      126             0.0000000000
     16788       132  POPC      H8X            29.3801914092       28.3299045140       -7.8752924112  MEMB      126             0.0000000000
     16789       132  POPC      H8Y            29.8663159907       26.7503073707       -8.2696465922  MEMB      126             0.0000000000
     16790       132  POPC      C39            29.8846185026       27.0732420955       -6.0920438348  MEMB      126             0.0000000000
     16791       132  POPC      H9X            29.6315061971       26.0867438295       -5.6481108831  MEMB      126             0.0000000000
     16792       132  POPC      H9Y            29.4292680270       27.7867499574       -5.3724020807  MEMB      126             0.0000000000
     16793       132  POPC      C310           31.3971132075       27.2557324924       -5.9995115186  MEMB      126             0.0000000000
     16794       132  POPC      H10X           31.7918557203       28.2780548645       -6.1821487595  MEMB      126             0.0000000000
     16795       132  POPC      H10Y           31.8672750960       26.6625912869       -6.8128083715  MEMB      126             0.0000000000
     16796       132  POPC      C311           31.9978071928       26.7394995189       -4.6215075344  MEMB      126             0.0000000000
     16797       132  POPC      H11X           32.0032655191       27.5935077617       -3.9109015570  MEMB      126             0.0000000000
     16798       132  POPC      H11Y           33.0700509806       26.5939938945       -4.8733854696  MEMB      126             0.0000000000
     16799       132  POPC      C312           31.4541807505       25.4269365474       -4.0749796798  MEMB      126             0.0000000000
     16800       132  POPC      H12X           31.4140425006       24.7470891940       -4.9527709830  MEMB      126             0.0000000000
     16801       132  POPC      H12Y           30.4308663562       25.7548972891       -3.7928620585  MEMB      126             0.0000000000
     16802       132  POPC      C313           32.1367278949       24.8420444664       -2.7465765231  MEMB      126             0.0000000000
     16803       132  POPC      H13X           33.0224463932       24.2763212486       -3.1068288096  MEMB      126             0.0000000000
     16804       132  POPC      H13Y           31.4913652942       24.0736198344       -2.2697636144  MEMB      126             0.0000000000
     16805       132  POPC      C314           32.5543955395       25.9227184040       -1.8014848436  MEMB      126             0.0000000000
     16806       132  POPC      H14X           33.3251359981       26.4695676861       -2.3856390695  MEMB      126             0.0000000000
     16807       132  POPC      H14Y           33.0269601122       25.3996439921       -0.9427659269  MEMB      126             0.0000000000
     16808       132  POPC      C315           31.5029330298       26.8681182332       -1.3018996600  MEMB      126             0.0000000000
     16809       132  POPC      H15X           30.9116517960       27.3348020703       -2.1185474542  MEMB      126             0.0000000000
     16810       132  POPC      H15Y           31.9288861404       27.7268426577       -0.7402260498  MEMB      126             0.0000000000
     16811       132  POPC      C316           30.5545722675       26.1648907439       -0.3883069928  MEMB      126             0.0000000000
     16812       132  POPC      H16X           29.7840173360       26.8539378427        0.0188539713  MEMB      126             0.0000000000
     16813       132  POPC      H16Y           31.0547760909       25.7749094113        0.5238521213  MEMB      126             0.0000000000
     16814       132  POPC      H16Z           30.0816363766       25.3206913414       -0.9341817185  MEMB      126             0.0000000000
     16815       133  POPC      N             -29.7988661260       26.8141215004      -19.6994502339  MEMB      127             0.0000000000
     16816       133  POPC      C12           -28.5576532937       26.7557029352      -20.6766016598  MEMB      127             0.0000000000
     16817       133  POPC      H12A          -28.8961600670       27.2366867777      -21.5823985053  MEMB      127             0.0000000000
     16818       133  POPC      H12B          -28.3916196026       25.7399602742      -21.0038624401  MEMB      127             0.0000000000
     16819       133  POPC      C13           -30.0059301279       28.2220017517      -19.3080444511  MEMB      127             0.0000000000
     16820       133  POPC      H13A          -30.0564575816       28.9090916106      -20.1397623113  MEMB      127             0.0000000000
     16821       133  POPC      H13B          -30.9522905470       28.2865040940      -18.7916710026  MEMB      127             0.0000000000
     16822       133  POPC      H13C          -29.2696943829       28.5968632707      -18.6124613704  MEMB      127             0.0000000000
     16823       133  POPC      C14           -31.0790776584       26.3456193850      -20.4517978202  MEMB      127             0.0000000000
     16824       133  POPC      H14A          -30.7878344066       25.3394277148      -20.7147731086  MEMB      127             0.0000000000
     16825       133  POPC      H14B          -31.9906739357       26.4166983965      -19.8770456668  MEMB      127             0.0000000000
     16826       133  POPC      H14C          -31.1427357872       27.0071346298      -21.3031174108  MEMB      127             0.0000000000
     16827       133  POPC      C15           -29.6586277358       25.9046211679      -18.4905369013  MEMB      127             0.0000000000
     16828       133  POPC      H15A          -29.0400818842       26.4451170850      -17.7893484223  MEMB      127             0.0000000000
     16829       133  POPC      H15B          -29.2932461008       24.9925248880      -18.9388412739  MEMB      127             0.0000000000
     16830       133  POPC      H15C          -30.6775424363       25.8793076895      -18.1333649283  MEMB      127             0.0000000000
     16831       133  POPC      C11           -27.2668900070       27.3187758622      -20.0861900113  MEMB      127             0.0000000000
     16832       133  POPC      H11A          -27.5801899575       28.3620073745      -19.8674844144  MEMB      127             0.0000000000
     16833       133  POPC      H11B          -26.3920543543       27.1561021144      -20.7514124000  MEMB      127             0.0000000000
     16834       133  POPC      P             -25.7149613714       27.2241114265      -18.0212303455  MEMB      127             0.0000000000
     16835       133  POPC      O13           -24.4927976632       27.0549402818      -18.8712544945  MEMB      127             0.0000000000
     16836       133  POPC      O14           -25.6862285269       26.6220060973      -16.6917984440  MEMB      127             0.0000000000
     16837       133  POPC      O12           -26.9755188077       26.7102471570      -18.8289467563  MEMB      127             0.0000000000
     16838       133  POPC      O11           -26.1467829866       28.8011359070      -17.8741488541  MEMB      127             0.0000000000
     16839       133  POPC      C1            -25.2992197156       29.7694584216      -18.3994673353  MEMB      127             0.0000000000
     16840       133  POPC      HA            -25.8729138468       30.3810482564      -19.1282703639  MEMB      127             0.0000000000
     16841       133  POPC      HB            -24.4640929671       29.4050023444      -19.0351213501  MEMB      127             0.0000000000
     16842       133  POPC      C2            -24.7185655604       30.6899034037      -17.3425965893  MEMB      127             0.0000000000
     16843       133  POPC      HS            -23.8361337134       31.1730256771      -17.8140074549  MEMB      127             0.0000000000
     16844       133  POPC      O21           -24.2107319532       29.8945042977      -16.2728592368  MEMB      127             0.0000000000
     16845       133  POPC      C21           -23.3261036618       30.3986481772      -15.4134910810  MEMB      127             0.0000000000
     16846       133  POPC      O22           -22.9534837546       31.5546648837      -15.4589233685  MEMB      127             0.0000000000
     16847       133  POPC      C22           -23.1241948267       29.3373354097      -14.3042590841  MEMB      127             0.0000000000
     16848       133  POPC      H2R           -22.0367344386       29.1633538838      -14.1576942611  MEMB      127             0.0000000000
     16849       133  POPC      H2S           -23.5544944343       28.3653099536      -14.6272597708  MEMB      127             0.0000000000
     16850       133  POPC      C3            -25.7276176929       31.7961344983      -16.7098119437  MEMB      127             0.0000000000
     16851       133  POPC      HX            -26.3935291330       32.3819663841      -17.3789038157  MEMB      127             0.0000000000
     16852       133  POPC      HY            -25.0557657016       32.4189409788      -16.0812831438  MEMB      127             0.0000000000
     16853       133  POPC      O31           -26.5720303091       31.0715741390      -15.8502395303  MEMB      127             0.0000000000
     16854       133  POPC      C31           -27.1065314417       31.6736556349      -14.8081783353  MEMB      127             0.0000000000
     16855       133  POPC      O32           -26.9545358643       32.8445770768      -14.4955254883  MEMB      127             0.0000000000
     16856       133  POPC      C32           -28.1003686838       30.6688261613      -14.1925948661  MEMB      127             0.0000000000
     16857       133  POPC      H2X           -28.8711531477       31.2380594130      -13.6302911052  MEMB      127             0.0000000000
     16858       133  POPC      H2Y           -27.5346280909       29.9673797849      -13.5428016413  MEMB      127             0.0000000000
     16859       133  POPC      C23           -23.8023095113       29.8638998724      -12.9512620423  MEMB      127             0.0000000000
     16860       133  POPC      H3R           -24.7950436555       30.2708955588      -13.2396269484  MEMB      127             0.0000000000
     16861       133  POPC      H3S           -23.1570439205       30.6077069124      -12.4367682367  MEMB      127             0.0000000000
     16862       133  POPC      C24           -24.1645845416       28.6759361729      -12.0589135900  MEMB      127             0.0000000000
     16863       133  POPC      H4R           -23.2431716147       28.3359411597      -11.5395649088  MEMB      127             0.0000000000
     16864       133  POPC      H4S           -24.6154767773       27.8345937729      -12.6273852802  MEMB      127             0.0000000000
     16865       133  POPC      C25           -25.1450421925       29.0196940929      -10.9070803882  MEMB      127             0.0000000000
     16866       133  POPC      H5R           -25.2809712502       28.1183623046      -10.2719066543  MEMB      127             0.0000000000
     16867       133  POPC      H5S           -26.0650232183       29.0814702338      -11.5268699738  MEMB      127             0.0000000000
     16868       133  POPC      C26           -24.7775965231       30.2623615566      -10.0172618836  MEMB      127             0.0000000000
     16869       133  POPC      H6R           -25.5178968270       30.3920074891       -9.1990508900  MEMB      127             0.0000000000
     16870       133  POPC      H6S           -24.7983592304       31.0919951754      -10.7559079600  MEMB      127             0.0000000000
     16871       133  POPC      C27           -23.5185894733       30.0585967051       -9.1605821826  MEMB      127             0.0000000000
     16872       133  POPC      H7R           -23.2753532330       31.0387562242       -8.6975006365  MEMB      127             0.0000000000
     16873       133  POPC      H7S           -22.6052886283       29.7262175688       -9.6988450511  MEMB      127             0.0000000000
     16874       133  POPC      C28           -23.6537099534       28.9501946446       -7.9946350843  MEMB      127             0.0000000000
     16875       133  POPC      H8R           -22.6226417350       28.7793315984       -7.6177722127  MEMB      127             0.0000000000
     16876       133  POPC      H8S           -23.8810561224       27.9506666879       -8.4230957078  MEMB      127             0.0000000000
     16877       133  POPC      C29           -24.6398672549       29.4103152431       -6.8314578810  MEMB      127             0.0000000000
     16878       133  POPC      H91           -25.6925503687       29.1272874734       -6.9789493866  MEMB      127             0.0000000000
     16879       133  POPC      C210          -24.3625700052       30.1110868763       -5.7505950232  MEMB      127             0.0000000000
     16880       133  POPC      H101          -25.2146359355       30.3105147843       -5.0841022380  MEMB      127             0.0000000000
     16881       133  POPC      C211          -23.0479163130       30.7310038026       -5.4501617654  MEMB      127             0.0000000000
     16882       133  POPC      H11R          -22.4078571844       30.4153823953       -6.3016472300  MEMB      127             0.0000000000
     16883       133  POPC      H11S          -22.5927708933       30.3106044458       -4.5279746712  MEMB      127             0.0000000000
     16884       133  POPC      C212          -22.9022214189       32.2410570187       -5.4424163825  MEMB      127             0.0000000000
     16885       133  POPC      H12R          -23.2271280381       32.6544418162       -6.4211244667  MEMB      127             0.0000000000
     16886       133  POPC      H12S          -21.8572265270       32.5432685052       -5.2166415439  MEMB      127             0.0000000000
     16887       133  POPC      C213          -23.7969048880       32.9859759478       -4.4404646094  MEMB      127             0.0000000000
     16888       133  POPC      H13R          -24.8195054935       32.6310572056       -4.6907475722  MEMB      127             0.0000000000
     16889       133  POPC      H13S          -23.6496001427       34.0074720870       -4.8517657801  MEMB      127             0.0000000000
     16890       133  POPC      C214          -23.4118266724       32.8232109040       -2.9547175426  MEMB      127             0.0000000000
     16891       133  POPC      H14R          -22.3402811851       33.0854207193       -2.8229686323  MEMB      127             0.0000000000
     16892       133  POPC      H14S          -23.5528759803       31.8052172715       -2.5326804230  MEMB      127             0.0000000000
     16893       133  POPC      C215          -24.2329442611       33.8279568973       -2.2205093138  MEMB      127             0.0000000000
     16894       133  POPC      H15R          -24.9583269103       34.3328370970       -2.8937369381  MEMB      127             0.0000000000
     16895       133  POPC      H15S          -23.6127218705       34.6332325389       -1.7719830829  MEMB      127             0.0000000000
     16896       133  POPC      C216          -24.8427379243       33.3796255775       -0.8683111193  MEMB      127             0.0000000000
     16897       133  POPC      H16R          -24.0402142942       32.8314142526       -0.3300347917  MEMB      127             0.0000000000
     16898       133  POPC      H16S          -25.6668012585       32.6979460569       -1.1692312055  MEMB      127             0.0000000000
     16899       133  POPC      C217          -25.3126742187       34.5219435428        0.0172247237  MEMB      127             0.0000000000
     16900       133  POPC      H17R          -26.0504709969       35.1865436567       -0.4810556174  MEMB      127             0.0000000000
     16901       133  POPC      H17S          -24.5167004831       35.2614227555        0.2494282077  MEMB      127             0.0000000000
     16902       133  POPC      C218          -25.9004919180       33.9684417422        1.3200284442  MEMB      127             0.0000000000
     16903       133  POPC      H18R          -26.5836655991       33.1111001374        1.1395838941  MEMB      127             0.0000000000
     16904       133  POPC      H18S          -26.5164137500       34.7314357205        1.8423330903  MEMB      127             0.0000000000
     16905       133  POPC      H18T          -25.0263224366       33.7373365854        1.9655808128  MEMB      127             0.0000000000
     16906       133  POPC      C33           -28.8425585438       29.7962280800      -15.2237202984  MEMB      127             0.0000000000
     16907       133  POPC      H3X           -28.1253124597       29.2892139845      -15.9040255041  MEMB      127             0.0000000000
     16908       133  POPC      H3Y           -29.3887891600       30.5544487005      -15.8245984310  MEMB      127             0.0000000000
     16909       133  POPC      C34           -29.7032291035       28.7402240234      -14.5591863889  MEMB      127             0.0000000000
     16910       133  POPC      H4X           -30.5090569232       28.5044676515      -15.2867721809  MEMB      127             0.0000000000
     16911       133  POPC      H4Y           -30.2163854894       29.0656955199      -13.6291001052  MEMB      127             0.0000000000
     16912       133  POPC      C35           -29.0753097558       27.3377616364      -14.3636880831  MEMB      127             0.0000000000
     16913       133  POPC      H5X           -28.6098201391       26.8295162236      -15.2350820610  MEMB      127             0.0000000000
     16914       133  POPC      H5Y           -29.8884140585       26.6538752925      -14.0389081186  MEMB      127             0.0000000000
     16915       133  POPC      C36           -28.0549489878       27.2450169466      -13.2314969023  MEMB      127             0.0000000000
     16916       133  POPC      H6X           -28.4955291927       28.0305650360      -12.5810168926  MEMB      127             0.0000000000
     16917       133  POPC      H6Y           -26.9982719744       27.4472797860      -13.5087050029  MEMB      127             0.0000000000
     16918       133  POPC      C37           -27.9591295738       25.8252183266      -12.4358223343  MEMB      127             0.0000000000
     16919       133  POPC      H7X           -27.5253373809       25.1015025569      -13.1585812713  MEMB      127             0.0000000000
     16920       133  POPC      H7Y           -28.9658777962       25.4379935024      -12.1696720452  MEMB      127             0.0000000000
     16921       133  POPC      C38           -27.1605219760       25.8319432355      -11.1268491065  MEMB      127             0.0000000000
     16922       133  POPC      H8X           -26.1795565129       26.3271502765      -11.2905492568  MEMB      127             0.0000000000
     16923       133  POPC      H8Y           -26.8910948938       24.8664297609      -10.6477729059  MEMB      127             0.0000000000
     16924       133  POPC      C39           -27.8140562939       26.5925582702       -9.9392071614  MEMB      127             0.0000000000
     16925       133  POPC      H9X           -27.9576646667       27.6852431312      -10.0796980837  MEMB      127             0.0000000000
     16926       133  POPC      H9Y           -27.1044084090       26.4239492633       -9.1011777774  MEMB      127             0.0000000000
     16927       133  POPC      C310          -29.2635424508       26.1778116940       -9.4793344929  MEMB      127             0.0000000000
     16928       133  POPC      H10X          -29.4392875959       25.0939419143       -9.3100378669  MEMB      127             0.0000000000
     16929       133  POPC      H10Y          -29.9830462392       26.3035992924      -10.3164796847  MEMB      127             0.0000000000
     16930       133  POPC      C311          -29.7542369015       26.9555671271       -8.2674697277  MEMB      127             0.0000000000
     16931       133  POPC      H11X          -30.7825932691       26.7299965802       -7.9126151534  MEMB      127             0.0000000000
     16932       133  POPC      H11Y          -29.6582200286       28.0229912717       -8.5602289360  MEMB      127             0.0000000000
     16933       133  POPC      C312          -28.7959293117       26.8526841480       -7.0885802448  MEMB      127             0.0000000000
     16934       133  POPC      H12X          -27.7574134347       27.0558883977       -7.4269786319  MEMB      127             0.0000000000
     16935       133  POPC      H12Y          -28.6825864631       25.8109938932       -6.7193157559  MEMB      127             0.0000000000
     16936       133  POPC      C313          -29.3181180738       27.6013565551       -5.8521831100  MEMB      127             0.0000000000
     16937       133  POPC      H13X          -30.4018471352       27.3572361409       -5.8361138743  MEMB      127             0.0000000000
     16938       133  POPC      H13Y          -29.2368715204       28.7090619359       -5.8788085316  MEMB      127             0.0000000000
     16939       133  POPC      C314          -28.5663272844       27.2626204133       -4.5230111890  MEMB      127             0.0000000000
     16940       133  POPC      H14X          -27.5331239753       27.6633991530       -4.6016768690  MEMB      127             0.0000000000
     16941       133  POPC      H14Y          -28.4315175811       26.1615501391       -4.5845871400  MEMB      127             0.0000000000
     16942       133  POPC      C315          -29.3575015473       27.8277352683       -3.3276229264  MEMB      127             0.0000000000
     16943       133  POPC      H15X          -29.4230669387       27.0872197592       -2.5019962686  MEMB      127             0.0000000000
     16944       133  POPC      H15Y          -30.4103795798       28.0678911115       -3.5885715468  MEMB      127             0.0000000000
     16945       133  POPC      C316          -28.7221289734       29.1002582684       -2.7264048694  MEMB      127             0.0000000000
     16946       133  POPC      H16X          -27.6797377308       28.7928697664       -2.4956371089  MEMB      127             0.0000000000
     16947       133  POPC      H16Y          -29.4058508634       29.3001359033       -1.8738238643  MEMB      127             0.0000000000
     16948       133  POPC      H16Z          -28.6344482413       29.8991307576       -3.4935007101  MEMB      127             0.0000000000
     16949       134  POPC      N             -25.8114314763      -30.6434168797      -20.4022662677  MEMB      128             0.0000000000
     16950       134  POPC      C12           -26.0898015973      -29.9817140975      -19.0941750212  MEMB      128             0.0000000000
     16951       134  POPC      H12A          -26.6617294225      -29.0703640388      -19.1876613583  MEMB      128             0.0000000000
     16952       134  POPC      H12B          -25.1669993634      -29.6752351332      -18.6241680451  MEMB      128             0.0000000000
     16953       134  POPC      C13           -27.0631854953      -30.6939461439      -21.2189751659  MEMB      128             0.0000000000
     16954       134  POPC      H13A          -27.4983290883      -29.7063346785      -21.1780648885  MEMB      128             0.0000000000
     16955       134  POPC      H13B          -26.7788329351      -30.8309567642      -22.2518216809  MEMB      128             0.0000000000
     16956       134  POPC      H13C          -27.7363762968      -31.4934485893      -20.9469274646  MEMB      128             0.0000000000
     16957       134  POPC      C14           -24.8137527102      -29.7614398153      -21.0995779231  MEMB      128             0.0000000000
     16958       134  POPC      H14A          -25.1904087792      -28.7819056892      -21.3546138968  MEMB      128             0.0000000000
     16959       134  POPC      H14B          -23.9382035925      -29.7569740878      -20.4672855451  MEMB      128             0.0000000000
     16960       134  POPC      H14C          -24.5544977569      -30.2688795600      -22.0170157026  MEMB      128             0.0000000000
     16961       134  POPC      C15           -25.2782227911      -32.0473921890      -20.2200973871  MEMB      128             0.0000000000
     16962       134  POPC      H15A          -24.5245435465      -32.1474310383      -19.4530511410  MEMB      128             0.0000000000
     16963       134  POPC      H15B          -24.9955901269      -32.4724761532      -21.1718444198  MEMB      128             0.0000000000
     16964       134  POPC      H15C          -26.1321882978      -32.5305306519      -19.7687437422  MEMB      128             0.0000000000
     16965       134  POPC      C11           -26.7718916816      -30.8127526934      -17.9854465784  MEMB      128             0.0000000000
     16966       134  POPC      H11A          -27.0401554899      -30.2531508909      -17.0639253274  MEMB      128             0.0000000000
     16967       134  POPC      H11B          -26.2154274756      -31.6821318684      -17.5745348778  MEMB      128             0.0000000000
     16968       134  POPC      P             -29.4609119364      -31.1189377504      -17.8582311277  MEMB      128             0.0000000000
     16969       134  POPC      O13           -30.3073612895      -32.2883344571      -18.2315821400  MEMB      128             0.0000000000
     16970       134  POPC      O14           -30.0294251410      -29.8093247830      -18.1548023861  MEMB      128             0.0000000000
     16971       134  POPC      O12           -27.9906015834      -31.2453519659      -18.5217625573  MEMB      128             0.0000000000
     16972       134  POPC      O11           -29.1084835217      -31.1795386773      -16.2130834446  MEMB      128             0.0000000000
     16973       134  POPC      C1            -28.5151744030      -32.2752352826      -15.6226150329  MEMB      128             0.0000000000
     16974       134  POPC      HA            -27.5788656988      -31.9197648804      -15.1416912310  MEMB      128             0.0000000000
     16975       134  POPC      HB            -28.2359279478      -33.0968276618      -16.3163934883  MEMB      128             0.0000000000
     16976       134  POPC      C2            -29.4788015498      -32.8412931707      -14.5283055304  MEMB      128             0.0000000000
     16977       134  POPC      HS            -30.0948812023      -33.6052160125      -15.0490632295  MEMB      128             0.0000000000
     16978       134  POPC      O21           -30.1787011295      -31.6580330234      -13.9188538659  MEMB      128             0.0000000000
     16979       134  POPC      C21           -31.3407413459      -31.4399465366      -14.3579930567  MEMB      128             0.0000000000
     16980       134  POPC      O22           -31.9882964270      -32.0949892340      -15.1744591741  MEMB      128             0.0000000000
     16981       134  POPC      C22           -31.9585752756      -30.3215196651      -13.4767006959  MEMB      128             0.0000000000
     16982       134  POPC      H2R           -32.4155015888      -30.7990671684      -12.5836793498  MEMB      128             0.0000000000
     16983       134  POPC      H2S           -32.5966722455      -29.8555977465      -14.2577701668  MEMB      128             0.0000000000
     16984       134  POPC      C3            -28.6739990357      -33.6398792865      -13.4189341195  MEMB      128             0.0000000000
     16985       134  POPC      HX            -27.7119480074      -33.1504059319      -13.1558851919  MEMB      128             0.0000000000
     16986       134  POPC      HY            -28.5046034450      -34.6300804968      -13.8934102163  MEMB      128             0.0000000000
     16987       134  POPC      O31           -29.4989075329      -33.8889231407      -12.2683259544  MEMB      128             0.0000000000
     16988       134  POPC      C31           -29.3545971786      -32.9985737966      -11.3063519190  MEMB      128             0.0000000000
     16989       134  POPC      O32           -28.6549322176      -31.9909759655      -11.2905871346  MEMB      128             0.0000000000
     16990       134  POPC      C32           -30.2755824884      -33.4571734718      -10.1810672420  MEMB      128             0.0000000000
     16991       134  POPC      H2X           -29.6404864387      -34.0555837519       -9.4934051065  MEMB      128             0.0000000000
     16992       134  POPC      H2Y           -31.1403818473      -34.0486731194      -10.5506226599  MEMB      128             0.0000000000
     16993       134  POPC      C23           -30.9175548797      -29.3137395429      -12.9656763568  MEMB      128             0.0000000000
     16994       134  POPC      H3R           -30.2420416043      -28.9940457300      -13.7877463549  MEMB      128             0.0000000000
     16995       134  POPC      H3S           -30.2179828623      -29.8899416313      -12.3230949306  MEMB      128             0.0000000000
     16996       134  POPC      C24           -31.3708080378      -28.0271313366      -12.2424381274  MEMB      128             0.0000000000
     16997       134  POPC      H4R           -31.8663322559      -28.4199542682      -11.3289460560  MEMB      128             0.0000000000
     16998       134  POPC      H4S           -32.1292532084      -27.5474178598      -12.8973859277  MEMB      128             0.0000000000
     16999       134  POPC      C25           -30.3337148316      -27.0097774993      -11.8377466547  MEMB      128             0.0000000000
     17000       134  POPC      H5R           -30.6742309203      -25.9917513343      -11.5514030958  MEMB      128             0.0000000000
     17001       134  POPC      H5S           -29.6399820383      -26.8801851435      -12.6958036604  MEMB      128             0.0000000000
     17002       134  POPC      C26           -29.3476989843      -27.6328783173      -10.7784889607  MEMB      128             0.0000000000
     17003       134  POPC      H6R           -28.8865274700      -28.5849564086      -11.1178834207  MEMB      128             0.0000000000
     17004       134  POPC      H6S           -29.7950779913      -27.8037337017       -9.7760012110  MEMB      128             0.0000000000
     17005       134  POPC      C27           -28.1105922359      -26.7250316711      -10.5241308059  MEMB      128             0.0000000000
     17006       134  POPC      H7R           -28.5772516172      -25.7444999112      -10.2893811920  MEMB      128             0.0000000000
     17007       134  POPC      H7S           -27.6949813389      -26.6202814110      -11.5491262973  MEMB      128             0.0000000000
     17008       134  POPC      C28           -26.9401978375      -27.1019660345       -9.5160301257  MEMB      128             0.0000000000
     17009       134  POPC      H8R           -26.2214899698      -26.2658257070       -9.6525934316  MEMB      128             0.0000000000
     17010       134  POPC      H8S           -26.3894462759      -27.9937560149       -9.8844107013  MEMB      128             0.0000000000
     17011       134  POPC      C29           -27.4800644115      -27.2942546252       -8.1431398630  MEMB      128             0.0000000000
     17012       134  POPC      H91           -27.6172674413      -26.4007874281       -7.5163292216  MEMB      128             0.0000000000
     17013       134  POPC      C210          -27.7291691877      -28.4339253431       -7.5707290357  MEMB      128             0.0000000000
     17014       134  POPC      H101          -28.3902371278      -28.4590042490       -6.6918885974  MEMB      128             0.0000000000
     17015       134  POPC      C211          -27.6009659209      -29.8246664014       -8.1119406201  MEMB      128             0.0000000000
     17016       134  POPC      H11R          -27.4745966040      -29.8796853958       -9.2143577877  MEMB      128             0.0000000000
     17017       134  POPC      H11S          -28.5287024725      -30.4239240497       -7.9914575100  MEMB      128             0.0000000000
     17018       134  POPC      C212          -26.3709829355      -30.6802524000       -7.5059131307  MEMB      128             0.0000000000
     17019       134  POPC      H12R          -25.4456317866      -30.1420387244       -7.8031869171  MEMB      128             0.0000000000
     17020       134  POPC      H12S          -26.4537892085      -31.5647309408       -8.1731169961  MEMB      128             0.0000000000
     17021       134  POPC      C213          -26.4875704540      -31.0109414876       -6.0528168161  MEMB      128             0.0000000000
     17022       134  POPC      H13R          -27.1385502447      -31.8778834808       -5.8100045617  MEMB      128             0.0000000000
     17023       134  POPC      H13S          -27.0817013617      -30.1736031564       -5.6283248106  MEMB      128             0.0000000000
     17024       134  POPC      C214          -25.0703876659      -31.1016441622       -5.3740742788  MEMB      128             0.0000000000
     17025       134  POPC      H14R          -24.4376165900      -30.3523224890       -5.8960312854  MEMB      128             0.0000000000
     17026       134  POPC      H14S          -24.6065605356      -32.1111010829       -5.3605827694  MEMB      128             0.0000000000
     17027       134  POPC      C215          -25.1007834543      -30.5831032620       -3.9487704948  MEMB      128             0.0000000000
     17028       134  POPC      H15R          -25.4532546021      -29.5489826611       -3.7470781468  MEMB      128             0.0000000000
     17029       134  POPC      H15S          -24.0453329535      -30.8075970318       -3.6842940629  MEMB      128             0.0000000000
     17030       134  POPC      C216          -25.9928624862      -31.3977941466       -2.9020916228  MEMB      128             0.0000000000
     17031       134  POPC      H16R          -26.2004557982      -32.3954451402       -3.3447186140  MEMB      128             0.0000000000
     17032       134  POPC      H16S          -26.9554064377      -30.8468590012       -2.8365128778  MEMB      128             0.0000000000
     17033       134  POPC      C217          -25.3835648893      -31.5359975543       -1.5384731099  MEMB      128             0.0000000000
     17034       134  POPC      H17R          -24.4854252566      -32.1857372988       -1.6126651415  MEMB      128             0.0000000000
     17035       134  POPC      H17S          -26.2748947256      -31.9510375816       -1.0211789148  MEMB      128             0.0000000000
     17036       134  POPC      C218          -24.8434436182      -30.2697459489       -0.8639865670  MEMB      128             0.0000000000
     17037       134  POPC      H18R          -23.9425548594      -29.9023075479       -1.4003729760  MEMB      128             0.0000000000
     17038       134  POPC      H18S          -24.5726003844      -30.2988945757        0.2130994406  MEMB      128             0.0000000000
     17039       134  POPC      H18T          -25.6236731877      -29.4788643055       -0.8556732248  MEMB      128             0.0000000000
     17040       134  POPC      C33           -30.7941289503      -32.3253178985       -9.3062358823  MEMB      128             0.0000000000
     17041       134  POPC      H3X           -31.6670863532      -31.8423987497       -9.7951682576  MEMB      128             0.0000000000
     17042       134  POPC      H3Y           -30.0454836230      -31.5049860534       -9.3363518694  MEMB      128             0.0000000000
     17043       134  POPC      C34           -31.0069207772      -32.8075209662       -7.8744470445  MEMB      128             0.0000000000
     17044       134  POPC      H4X           -30.0472581137      -33.0302234617       -7.3608603270  MEMB      128             0.0000000000
     17045       134  POPC      H4Y           -31.5828373519      -33.7431179066       -8.0396734142  MEMB      128             0.0000000000
     17046       134  POPC      C35           -31.8558695081      -31.8450710265       -6.9882132890  MEMB      128             0.0000000000
     17047       134  POPC      H5X           -32.1465237271      -32.4870975199       -6.1293522809  MEMB      128             0.0000000000
     17048       134  POPC      H5Y           -32.7721099268      -31.3606091362       -7.3883639323  MEMB      128             0.0000000000
     17049       134  POPC      C36           -30.9958056293      -30.7655607371       -6.2433063435  MEMB      128             0.0000000000
     17050       134  POPC      H6X           -30.7165995587      -29.9986014728       -6.9970563878  MEMB      128             0.0000000000
     17051       134  POPC      H6Y           -30.0505545918      -31.2434234357       -5.9079424280  MEMB      128             0.0000000000
     17052       134  POPC      C37           -31.7082460298      -30.2165833887       -5.0689864223  MEMB      128             0.0000000000
     17053       134  POPC      H7X           -32.1360003275      -31.0939292140       -4.5383149929  MEMB      128             0.0000000000
     17054       134  POPC      H7Y           -32.5040208944      -29.4644484424       -5.2570185943  MEMB      128             0.0000000000
     17055       134  POPC      C38           -30.5878665725      -29.6089908865       -4.1722724286  MEMB      128             0.0000000000
     17056       134  POPC      H8X           -30.0108172517      -28.8940981937       -4.7969827551  MEMB      128             0.0000000000
     17057       134  POPC      H8Y           -29.8586574316      -30.3643130267       -3.8088667109  MEMB      128             0.0000000000
     17058       134  POPC      C39           -31.0344749175      -28.8813083799       -2.9254400863  MEMB      128             0.0000000000
     17059       134  POPC      H9X           -31.5527947699      -27.9417590191       -3.2133855086  MEMB      128             0.0000000000
     17060       134  POPC      H9Y           -30.1276007939      -28.5910620188       -2.3530258946  MEMB      128             0.0000000000
     17061       134  POPC      C310          -32.0564134430      -29.5882988330       -2.0210336445  MEMB      128             0.0000000000
     17062       134  POPC      H10X          -32.9987845775      -29.7688518804       -2.5810865481  MEMB      128             0.0000000000
     17063       134  POPC      H10Y          -32.3480577837      -28.9449076388       -1.1635301970  MEMB      128             0.0000000000
     17064       134  POPC      C311          -31.7372270566      -30.9910756509       -1.4197218515  MEMB      128             0.0000000000
     17065       134  POPC      H11X          -31.6636930216      -31.6870832957       -2.2825590895  MEMB      128             0.0000000000
     17066       134  POPC      H11Y          -32.5391286119      -31.3242532867       -0.7267091162  MEMB      128             0.0000000000
     17067       134  POPC      C312          -30.4027660697      -30.9868833768       -0.6633021637  MEMB      128             0.0000000000
     17068       134  POPC      H12X          -30.5284426535      -30.3291910911        0.2232469864  MEMB      128             0.0000000000
     17069       134  POPC      H12Y          -29.6096199551      -30.5840513983       -1.3288585063  MEMB      128             0.0000000000
     17070       134  POPC      C313          -30.0184908328      -32.4749277388       -0.1987371739  MEMB      128             0.0000000000
     17071       134  POPC      H13X          -30.9843787966      -32.9611510865        0.0561502465  MEMB      128             0.0000000000
     17072       134  POPC      H13Y          -29.2514966390      -32.5035069211        0.6045207811  MEMB      128             0.0000000000
     17073       134  POPC      C314          -29.3406953415      -33.2934942159       -1.3214020330  MEMB      128             0.0000000000
     17074       134  POPC      H14X          -28.3989891221      -32.8344558185       -1.6912598390  MEMB      128             0.0000000000
     17075       134  POPC      H14Y          -29.9516574095      -33.4288032567       -2.2394096201  MEMB      128             0.0000000000
     17076       134  POPC      C315          -29.0528990376      -34.7635140479       -0.8817211426  MEMB      128             0.0000000000
     17077       134  POPC      H15X          -30.0345466731      -35.2468229527       -1.0743388719  MEMB      128             0.0000000000
     17078       134  POPC      H15Y          -28.6545335830      -34.7367332063        0.1550581820  MEMB      128             0.0000000000
     17079       134  POPC      C316          -28.1407678622      -35.4305809230       -1.9186910539  MEMB      128             0.0000000000
     17080       134  POPC      H16X          -27.2507413285      -34.7835144570       -2.0719191353  MEMB      128             0.0000000000
     17081       134  POPC      H16Y          -28.6885282653      -35.4744571805       -2.8842764314  MEMB      128             0.0000000000
     17082       134  POPC      H16Z          -27.7799197552      -36.4697341599       -1.7629023842  MEMB      128             0.0000000000
     17083       135  POPC      N              33.9041037846      -23.9535913295      -19.9885805665  MEMB      129             0.0000000000
     17084       135  POPC      C12            32.4564060825      -24.2199190588      -19.5209235804  MEMB      129             0.0000000000
     17085       135  POPC      H12A           32.0775561379      -24.8688026332      -20.2966960347  MEMB      129             0.0000000000
     17086       135  POPC      H12B           31.9662532835      -23.2741484298      -19.6988792100  MEMB      129             0.0000000000
     17087       135  POPC      C13            34.7675140336      -25.1631401523      -20.0072574781  MEMB      129             0.0000000000
     17088       135  POPC      H13A           35.7981759610      -24.9769148465      -20.2708030018  MEMB      129             0.0000000000
     17089       135  POPC      H13B           34.7194182213      -25.5406305414      -18.9965212728  MEMB      129             0.0000000000
     17090       135  POPC      H13C           34.3588523129      -25.8905846568      -20.6929833641  MEMB      129             0.0000000000
     17091       135  POPC      C14            33.8978445386      -23.3838020742      -21.3706620232  MEMB      129             0.0000000000
     17092       135  POPC      H14A           33.4452418101      -22.4032373113      -21.3772725765  MEMB      129             0.0000000000
     17093       135  POPC      H14B           34.9421976205      -23.2895025673      -21.6291856773  MEMB      129             0.0000000000
     17094       135  POPC      H14C           33.4154244807      -24.0917870238      -22.0282548193  MEMB      129             0.0000000000
     17095       135  POPC      C15            34.5334099158      -22.9802042384      -19.0226395249  MEMB      129             0.0000000000
     17096       135  POPC      H15A           34.7008116910      -23.6375774971      -18.1822604799  MEMB      129             0.0000000000
     17097       135  POPC      H15B           33.8428507122      -22.1621213804      -18.8802719491  MEMB      129             0.0000000000
     17098       135  POPC      H15C           35.4579669271      -22.5860998893      -19.4179570631  MEMB      129             0.0000000000
     17099       135  POPC      C11            32.2345311335      -24.8145387254      -18.1961157415  MEMB      129             0.0000000000
     17100       135  POPC      H11A           31.1405826784      -24.7606740432      -18.0098460943  MEMB      129             0.0000000000
     17101       135  POPC      H11B           32.7242757189      -24.1871405035      -17.4209752970  MEMB      129             0.0000000000
     17102       135  POPC      P              31.7100704243      -27.3715503198      -18.2440923985  MEMB      129             0.0000000000
     17103       135  POPC      O13            31.8313510936      -27.5572988447      -19.6875234947  MEMB      129             0.0000000000
     17104       135  POPC      O14            30.3504623270      -27.1085329016      -17.6813111020  MEMB      129             0.0000000000
     17105       135  POPC      O12            32.6237677251      -26.1725966279      -17.9210083737  MEMB      129             0.0000000000
     17106       135  POPC      O11            32.4080256841      -28.5031808825      -17.3598857163  MEMB      129             0.0000000000
     17107       135  POPC      C1             33.7671720569      -28.4781734135      -16.9995640356  MEMB      129             0.0000000000
     17108       135  POPC      HA             34.3681695140      -27.7377898760      -17.5696126241  MEMB      129             0.0000000000
     17109       135  POPC      HB             34.1866526714      -29.4553771588      -17.3211689801  MEMB      129             0.0000000000
     17110       135  POPC      C2             33.9027614456      -28.2694235072      -15.4482063432  MEMB      129             0.0000000000
     17111       135  POPC      HS             33.6244974232      -29.1957547528      -14.9015797529  MEMB      129             0.0000000000
     17112       135  POPC      O21            33.0027435387      -27.1539861351      -15.1561437936  MEMB      129             0.0000000000
     17113       135  POPC      C21            31.8503820215      -27.3515457291      -14.6748090224  MEMB      129             0.0000000000
     17114       135  POPC      O22            31.3352897279      -28.4596490286      -14.4416182936  MEMB      129             0.0000000000
     17115       135  POPC      C22            31.0856343582      -26.0519857949      -14.3290610833  MEMB      129             0.0000000000
     17116       135  POPC      H2R            30.0045384990      -26.3076903178      -14.3420054565  MEMB      129             0.0000000000
     17117       135  POPC      H2S            31.3091891689      -25.2076052399      -15.0156218691  MEMB      129             0.0000000000
     17118       135  POPC      C3             35.3710509830      -27.8948079781      -14.9623307995  MEMB      129             0.0000000000
     17119       135  POPC      HX             35.7526504886      -27.2069211164      -15.7468779748  MEMB      129             0.0000000000
     17120       135  POPC      HY             35.8939174121      -28.8724709220      -14.8908687784  MEMB      129             0.0000000000
     17121       135  POPC      O31            35.3585731335      -27.2031295956      -13.6988760814  MEMB      129             0.0000000000
     17122       135  POPC      C31            36.3607495931      -27.4930881291      -12.8179809193  MEMB      129             0.0000000000
     17123       135  POPC      O32            37.2167419356      -28.2727136277      -13.0254221369  MEMB      129             0.0000000000
     17124       135  POPC      C32            36.1039513450      -26.6215551328      -11.5761556387  MEMB      129             0.0000000000
     17125       135  POPC      H2X            36.4505282230      -27.2088026351      -10.6990319730  MEMB      129             0.0000000000
     17126       135  POPC      H2Y            35.0325483974      -26.4063242976      -11.3759242357  MEMB      129             0.0000000000
     17127       135  POPC      C23            31.6228886894      -25.4836417504      -13.0063798413  MEMB      129             0.0000000000
     17128       135  POPC      H3R            31.1306118783      -24.5148468230      -12.7752496539  MEMB      129             0.0000000000
     17129       135  POPC      H3S            32.7203512199      -25.3939311094      -13.1541937881  MEMB      129             0.0000000000
     17130       135  POPC      C24            31.4727568817      -26.3585839443      -11.7667900442  MEMB      129             0.0000000000
     17131       135  POPC      H4R            32.2306888230      -27.1708955805      -11.7699488657  MEMB      129             0.0000000000
     17132       135  POPC      H4S            30.4447013640      -26.7689425847      -11.8618101792  MEMB      129             0.0000000000
     17133       135  POPC      C25            31.5115019143      -25.7472695076      -10.4298082636  MEMB      129             0.0000000000
     17134       135  POPC      H5R            30.7279023403      -24.9711800878      -10.2957269783  MEMB      129             0.0000000000
     17135       135  POPC      H5S            32.3600364444      -25.0985231317      -10.1241306880  MEMB      129             0.0000000000
     17136       135  POPC      C26            31.4139547400      -26.8229804106       -9.3186340732  MEMB      129             0.0000000000
     17137       135  POPC      H6R            30.5859216529      -27.5129904521       -9.5880202833  MEMB      129             0.0000000000
     17138       135  POPC      H6S            31.0246916607      -26.2601915109       -8.4433833313  MEMB      129             0.0000000000
     17139       135  POPC      C27            32.7733728631      -27.5219914262       -9.0365596787  MEMB      129             0.0000000000
     17140       135  POPC      H7R            33.5744688595      -26.7543163969       -9.0934919510  MEMB      129             0.0000000000
     17141       135  POPC      H7S            32.9451687033      -28.3199322722       -9.7902818427  MEMB      129             0.0000000000
     17142       135  POPC      C28            32.8934585334      -28.2414138488       -7.6796553683  MEMB      129             0.0000000000
     17143       135  POPC      H8R            33.8881420189      -28.7254774473       -7.5766586665  MEMB      129             0.0000000000
     17144       135  POPC      H8S            32.0727095865      -28.9899216455       -7.7003542989  MEMB      129             0.0000000000
     17145       135  POPC      C29            32.6653344465      -27.2214976411       -6.5395648954  MEMB      129             0.0000000000
     17146       135  POPC      H91            33.3000184899      -26.3233375672       -6.5615779410  MEMB      129             0.0000000000
     17147       135  POPC      C210           31.7260934210      -27.3153040397       -5.5848958427  MEMB      129             0.0000000000
     17148       135  POPC      H101           31.6144661850      -26.4528689602       -4.9112904512  MEMB      129             0.0000000000
     17149       135  POPC      C211           30.7062287466      -28.4598945381       -5.3761162078  MEMB      129             0.0000000000
     17150       135  POPC      H11R           30.4585760543      -28.9625565961       -6.3354493204  MEMB      129             0.0000000000
     17151       135  POPC      H11S           29.7189463628      -28.0723711868       -5.0453293733  MEMB      129             0.0000000000
     17152       135  POPC      C212           31.2568595735      -29.6126175374       -4.6436882688  MEMB      129             0.0000000000
     17153       135  POPC      H12R           32.1682572092      -29.8562720629       -5.2304655690  MEMB      129             0.0000000000
     17154       135  POPC      H12S           30.5656836002      -30.4690070492       -4.7959849082  MEMB      129             0.0000000000
     17155       135  POPC      C213           31.6026375652      -29.4801733885       -3.1015085998  MEMB      129             0.0000000000
     17156       135  POPC      H13R           30.7296914044      -29.1410634445       -2.5037709425  MEMB      129             0.0000000000
     17157       135  POPC      H13S           32.3321320965      -28.6808135430       -2.8501475889  MEMB      129             0.0000000000
     17158       135  POPC      C214           32.1193738527      -30.9043850964       -2.7801406067  MEMB      129             0.0000000000
     17159       135  POPC      H14R           32.9611418563      -31.1134525643       -3.4744308920  MEMB      129             0.0000000000
     17160       135  POPC      H14S           31.2403934551      -31.5543502321       -2.9782826387  MEMB      129             0.0000000000
     17161       135  POPC      C215           32.6408999286      -31.2057963559       -1.3881636699  MEMB      129             0.0000000000
     17162       135  POPC      H15R           33.7250676492      -30.9753802409       -1.3119416348  MEMB      129             0.0000000000
     17163       135  POPC      H15S           32.5031182224      -32.2890281146       -1.1833577632  MEMB      129             0.0000000000
     17164       135  POPC      C216           31.9712206288      -30.3902894555       -0.3065145868  MEMB      129             0.0000000000
     17165       135  POPC      H16R           30.8984866403      -30.6674371207       -0.3886861892  MEMB      129             0.0000000000
     17166       135  POPC      H16S           32.1212671983      -29.2922172153       -0.3842607917  MEMB      129             0.0000000000
     17167       135  POPC      C217           32.2693999442      -30.6098007192        1.2134889092  MEMB      129             0.0000000000
     17168       135  POPC      H17R           32.1444999817      -31.6952979252        1.4145274328  MEMB      129             0.0000000000
     17169       135  POPC      H17S           31.4453905343      -30.0101613510        1.6559390244  MEMB      129             0.0000000000
     17170       135  POPC      C218           33.6701382409      -30.0479687422        1.7036621340  MEMB      129             0.0000000000
     17171       135  POPC      H18R           33.7186456383      -29.8941664462        2.8028953284  MEMB      129             0.0000000000
     17172       135  POPC      H18S           33.6418885980      -29.0297486521        1.2600968854  MEMB      129             0.0000000000
     17173       135  POPC      H18T           34.6783038381      -30.3921368534        1.3882711259  MEMB      129             0.0000000000
     17174       135  POPC      C33            36.9093806844      -25.4354207035      -11.7089575488  MEMB      129             0.0000000000
     17175       135  POPC      H3X            36.4791145222      -24.8464701028      -12.5470087453  MEMB      129             0.0000000000
     17176       135  POPC      H3Y            37.9609240315      -25.7432507559      -11.8928541587  MEMB      129             0.0000000000
     17177       135  POPC      C34            36.8739927621      -24.4979876053      -10.5109919943  MEMB      129             0.0000000000
     17178       135  POPC      H4X            37.6906822418      -23.7590085417      -10.6567621941  MEMB      129             0.0000000000
     17179       135  POPC      H4Y            37.1086783595      -25.1465212463       -9.6399877521  MEMB      129             0.0000000000
     17180       135  POPC      C35            35.5292575628      -23.7184157680      -10.2700998334  MEMB      129             0.0000000000
     17181       135  POPC      H5X            34.7152527214      -24.4674564747      -10.1668770861  MEMB      129             0.0000000000
     17182       135  POPC      H5Y            35.2435073148      -23.1543325413      -11.1835977650  MEMB      129             0.0000000000
     17183       135  POPC      C36            35.4920196353      -22.8265739379       -9.0209060707  MEMB      129             0.0000000000
     17184       135  POPC      H6X            34.4826534403      -22.3623688228       -9.0247404773  MEMB      129             0.0000000000
     17185       135  POPC      H6Y            36.3059055534      -22.0812396447       -9.1489181754  MEMB      129             0.0000000000
     17186       135  POPC      C37            35.5444708876      -23.5875469791       -7.6596603209  MEMB      129             0.0000000000
     17187       135  POPC      H7X            36.5360871098      -24.0546132942       -7.4783677565  MEMB      129             0.0000000000
     17188       135  POPC      H7Y            34.7510880807      -24.3627678588       -7.7220911400  MEMB      129             0.0000000000
     17189       135  POPC      C38            35.5375720658      -22.6514497938       -6.4004720450  MEMB      129             0.0000000000
     17190       135  POPC      H8X            36.2869768260      -21.8672987116       -6.6409317462  MEMB      129             0.0000000000
     17191       135  POPC      H8Y            35.9017133828      -23.3176096058       -5.5893297046  MEMB      129             0.0000000000
     17192       135  POPC      C39            34.2012889543      -21.9994114273       -6.0442288904  MEMB      129             0.0000000000
     17193       135  POPC      H9X            33.9387764813      -21.2871054916       -6.8554179287  MEMB      129             0.0000000000
     17194       135  POPC      H9Y            34.2958863182      -21.3911191432       -5.1193761845  MEMB      129             0.0000000000
     17195       135  POPC      C310           33.1403072251      -23.0458124226       -5.8440261123  MEMB      129             0.0000000000
     17196       135  POPC      H10X           33.1973180715      -23.7250921795       -6.7213222429  MEMB      129             0.0000000000
     17197       135  POPC      H10Y           32.1637001857      -22.5186949608       -5.8960557252  MEMB      129             0.0000000000
     17198       135  POPC      C311           32.9901537028      -23.8389301374       -4.5158273914  MEMB      129             0.0000000000
     17199       135  POPC      H11X           32.1119201059      -24.4918982786       -4.7072939357  MEMB      129             0.0000000000
     17200       135  POPC      H11Y           32.9246163978      -23.1217488865       -3.6698504914  MEMB      129             0.0000000000
     17201       135  POPC      C312           34.2316747302      -24.7111038820       -4.0152508115  MEMB      129             0.0000000000
     17202       135  POPC      H12X           35.0462017933      -24.0215022591       -3.7065171007  MEMB      129             0.0000000000
     17203       135  POPC      H12Y           34.6019122562      -25.2562207952       -4.9097297141  MEMB      129             0.0000000000
     17204       135  POPC      C313           34.0197633295      -25.7353935643       -2.8359908944  MEMB      129             0.0000000000
     17205       135  POPC      H13X           34.9360836622      -26.3615719393       -2.7852098670  MEMB      129             0.0000000000
     17206       135  POPC      H13Y           33.1283345118      -26.3765545133       -3.0050721336  MEMB      129             0.0000000000
     17207       135  POPC      C314           33.6768547303      -25.0735696000       -1.4624141172  MEMB      129             0.0000000000
     17208       135  POPC      H14X           33.1557709329      -24.0940096678       -1.5194683594  MEMB      129             0.0000000000
     17209       135  POPC      H14Y           34.6758299464      -24.7469481809       -1.1022927212  MEMB      129             0.0000000000
     17210       135  POPC      C315           32.9078295263      -25.9876534829       -0.5552757075  MEMB      129             0.0000000000
     17211       135  POPC      H15X           33.1956381457      -27.0488330987       -0.7146020021  MEMB      129             0.0000000000
     17212       135  POPC      H15Y           31.8554016693      -25.9712721248       -0.9108716540  MEMB      129             0.0000000000
     17213       135  POPC      C316           32.8467681788      -25.5722235880        0.9035627916  MEMB      129             0.0000000000
     17214       135  POPC      H16X           33.8590242341      -25.6870867378        1.3468071470  MEMB      129             0.0000000000
     17215       135  POPC      H16Y           32.1314184660      -26.2714175779        1.3870124730  MEMB      129             0.0000000000
     17216       135  POPC      H16Z           32.5645539194      -24.5074405339        1.0481764332  MEMB      129             0.0000000000
     17217       136  POPC      N              32.8044025524       30.4333645403      -18.4648242557  MEMB      130             0.0000000000
     17218       136  POPC      C12            31.2516110586       30.6825049618      -18.4633472023  MEMB      130             0.0000000000
     17219       136  POPC      H12A           30.9359102100       31.5024756062      -17.8353495543  MEMB      130             0.0000000000
     17220       136  POPC      H12B           30.7557801334       29.7668107070      -18.1768933999  MEMB      130             0.0000000000
     17221       136  POPC      C13            33.2881403536       29.4283844933      -19.4255696628  MEMB      130             0.0000000000
     17222       136  POPC      H13A           32.6177886536       28.5968485774      -19.2656429503  MEMB      130             0.0000000000
     17223       136  POPC      H13B           33.1016402796       29.6457864235      -20.4668929904  MEMB      130             0.0000000000
     17224       136  POPC      H13C           34.2733211067       29.0458932583      -19.2030407526  MEMB      130             0.0000000000
     17225       136  POPC      C14            33.5653135710       31.7752769023      -18.6609182116  MEMB      130             0.0000000000
     17226       136  POPC      H14A           33.1608292547       32.5454096630      -18.0208495389  MEMB      130             0.0000000000
     17227       136  POPC      H14B           34.6378274778       31.7247957074      -18.5444465695  MEMB      130             0.0000000000
     17228       136  POPC      H14C           33.4294212657       32.0158206572      -19.7049833228  MEMB      130             0.0000000000
     17229       136  POPC      C15            33.2169087821       29.9370008519      -17.1022460193  MEMB      130             0.0000000000
     17230       136  POPC      H15A           34.2262663490       29.5529782175      -17.0911143852  MEMB      130             0.0000000000
     17231       136  POPC      H15B           32.4212740623       29.3249419512      -16.7038123039  MEMB      130             0.0000000000
     17232       136  POPC      H15C           33.2365834610       30.7591270043      -16.4021592658  MEMB      130             0.0000000000
     17233       136  POPC      C11            30.7647113144       31.0552474086      -19.8633822083  MEMB      130             0.0000000000
     17234       136  POPC      H11A           29.6591117550       30.9663458606      -19.9271560885  MEMB      130             0.0000000000
     17235       136  POPC      H11B           31.2440783551       30.4281147273      -20.6451960700  MEMB      130             0.0000000000
     17236       136  POPC      P              30.4178007004       33.6445642065      -19.4502892436  MEMB      130             0.0000000000
     17237       136  POPC      O13            29.0540890101       33.6535419181      -19.8719941965  MEMB      130             0.0000000000
     17238       136  POPC      O14            31.2072366622       34.9029393830      -19.8088378240  MEMB      130             0.0000000000
     17239       136  POPC      O12            31.1234613120       32.3973720742      -20.0268151438  MEMB      130             0.0000000000
     17240       136  POPC      O11            30.5538043792       33.4114783592      -17.8617760366  MEMB      130             0.0000000000
     17241       136  POPC      C1             29.3818694113       33.3715987050      -17.0474921051  MEMB      130             0.0000000000
     17242       136  POPC      HA             28.4826650721       32.9745048228      -17.5652457655  MEMB      130             0.0000000000
     17243       136  POPC      HB             29.0542777034       34.4239997962      -16.9080048580  MEMB      130             0.0000000000
     17244       136  POPC      C2             29.5688373020       32.6837977782      -15.6822688487  MEMB      130             0.0000000000
     17245       136  POPC      HS             29.1467190454       33.3705394006      -14.9177279310  MEMB      130             0.0000000000
     17246       136  POPC      O21            30.9311483315       32.2978795737      -15.3857853922  MEMB      130             0.0000000000
     17247       136  POPC      C21            31.7524842255       33.2824310337      -14.9991123615  MEMB      130             0.0000000000
     17248       136  POPC      O22            31.5015777232       34.4677927062      -15.1145372550  MEMB      130             0.0000000000
     17249       136  POPC      C22            33.0830719090       32.6553185322      -14.3537394400  MEMB      130             0.0000000000
     17250       136  POPC      H2R            33.6298034906       33.4512705317      -13.8043162488  MEMB      130             0.0000000000
     17251       136  POPC      H2S            33.7174624258       32.2405001755      -15.1660172698  MEMB      130             0.0000000000
     17252       136  POPC      C3             28.8429553256       31.3584455183      -15.4824972973  MEMB      130             0.0000000000
     17253       136  POPC      HX             29.0168805440       30.6389825430      -16.3110166645  MEMB      130             0.0000000000
     17254       136  POPC      HY             27.7581811477       31.5972215808      -15.5064099173  MEMB      130             0.0000000000
     17255       136  POPC      O31            29.0837410503       30.7501374494      -14.1978443169  MEMB      130             0.0000000000
     17256       136  POPC      C31            28.4916838127       29.6054996286      -14.0571686371  MEMB      130             0.0000000000
     17257       136  POPC      O32            27.8985891294       28.9606512078      -14.9183450406  MEMB      130             0.0000000000
     17258       136  POPC      C32            28.7065811935       29.2225339983      -12.5448508623  MEMB      130             0.0000000000
     17259       136  POPC      H2X            27.8566384057       28.5794419653      -12.2312419847  MEMB      130             0.0000000000
     17260       136  POPC      H2Y            28.5503125582       30.1697104694      -11.9856036654  MEMB      130             0.0000000000
     17261       136  POPC      C23            32.7367991381       31.5072372933      -13.3469692514  MEMB      130             0.0000000000
     17262       136  POPC      H3R            32.3777739878       30.6058240531      -13.8881494970  MEMB      130             0.0000000000
     17263       136  POPC      H3S            31.9639130047       31.9005004920      -12.6524823134  MEMB      130             0.0000000000
     17264       136  POPC      C24            33.9981431051       30.8802862465      -12.6422519365  MEMB      130             0.0000000000
     17265       136  POPC      H4R            34.6310167398       30.4160504037      -13.4285581047  MEMB      130             0.0000000000
     17266       136  POPC      H4S            33.5987113031       30.0716034074      -11.9935550584  MEMB      130             0.0000000000
     17267       136  POPC      C25            34.6216002019       31.9750935802      -11.7508788307  MEMB      130             0.0000000000
     17268       136  POPC      H5R            34.7846578100       32.8917645087      -12.3570534513  MEMB      130             0.0000000000
     17269       136  POPC      H5S            35.5399688537       31.6263505696      -11.2319390861  MEMB      130             0.0000000000
     17270       136  POPC      C26            33.6944833894       32.3406398269      -10.5416325269  MEMB      130             0.0000000000
     17271       136  POPC      H6R            33.5418894952       31.3654186412      -10.0317513024  MEMB      130             0.0000000000
     17272       136  POPC      H6S            32.7417661838       32.6919485750      -10.9924466197  MEMB      130             0.0000000000
     17273       136  POPC      C27            34.2562076481       33.3306801454       -9.5422258314  MEMB      130             0.0000000000
     17274       136  POPC      H7R            35.3491661783       33.2740790779       -9.3510210367  MEMB      130             0.0000000000
     17275       136  POPC      H7S            33.7999765806       33.0678101741       -8.5639245635  MEMB      130             0.0000000000
     17276       136  POPC      C28            33.8032202206       34.8878386024       -9.8144867315  MEMB      130             0.0000000000
     17277       136  POPC      H8R            34.0121506666       35.1415720934      -10.8757542210  MEMB      130             0.0000000000
     17278       136  POPC      H8S            34.4722570122       35.5866861584       -9.2682978420  MEMB      130             0.0000000000
     17279       136  POPC      C29            32.3412007607       35.0558186022       -9.4435564484  MEMB      130             0.0000000000
     17280       136  POPC      H91            31.7765968100       34.2786872435       -9.9795498904  MEMB      130             0.0000000000
     17281       136  POPC      C210           31.6857057903       35.9091296413       -8.6591596056  MEMB      130             0.0000000000
     17282       136  POPC      H101           30.6096346991       35.7201943142       -8.5311978787  MEMB      130             0.0000000000
     17283       136  POPC      C211           32.1908757479       36.9774611240       -7.7829245609  MEMB      130             0.0000000000
     17284       136  POPC      H11R           31.6009601044       37.8977579982       -7.9813542397  MEMB      130             0.0000000000
     17285       136  POPC      H11S           33.2667341051       37.1629180112       -7.9889747794  MEMB      130             0.0000000000
     17286       136  POPC      C212           31.9402544944       36.5992993926       -6.3151000970  MEMB      130             0.0000000000
     17287       136  POPC      H12R           30.8660789984       36.4526106465       -6.0723030248  MEMB      130             0.0000000000
     17288       136  POPC      H12S           32.3437081119       37.4178022598       -5.6813820332  MEMB      130             0.0000000000
     17289       136  POPC      C213           32.6788682949       35.3347486792       -5.8385248714  MEMB      130             0.0000000000
     17290       136  POPC      H13R           33.6980509770       35.2762590551       -6.2768934479  MEMB      130             0.0000000000
     17291       136  POPC      H13S           32.0433411496       34.4519265868       -6.0644698431  MEMB      130             0.0000000000
     17292       136  POPC      C214           32.7994554597       35.4116441337       -4.3142515686  MEMB      130             0.0000000000
     17293       136  POPC      H14R           31.7796015869       35.6428696457       -3.9390800940  MEMB      130             0.0000000000
     17294       136  POPC      H14S           33.4561122823       36.2413824976       -3.9756423918  MEMB      130             0.0000000000
     17295       136  POPC      C215           33.2934990097       34.0667017983       -3.6581084897  MEMB      130             0.0000000000
     17296       136  POPC      H15R           34.3914229891       33.9490643907       -3.5354480048  MEMB      130             0.0000000000
     17297       136  POPC      H15S           33.1056137498       33.1317574985       -4.2281073825  MEMB      130             0.0000000000
     17298       136  POPC      C216           32.6107416405       33.8591185003       -2.2737988170  MEMB      130             0.0000000000
     17299       136  POPC      H16R           32.8359539069       32.8362338054       -1.9032475281  MEMB      130             0.0000000000
     17300       136  POPC      H16S           31.5269215191       34.0637421168       -2.1404371025  MEMB      130             0.0000000000
     17301       136  POPC      C217           33.2924326850       34.7710059393       -1.1699561017  MEMB      130             0.0000000000
     17302       136  POPC      H17R           32.7961989114       35.7441591061       -1.3725550558  MEMB      130             0.0000000000
     17303       136  POPC      H17S           34.3753400877       34.8862343536       -0.9500584273  MEMB      130             0.0000000000
     17304       136  POPC      C218           32.7300299935       34.3047065136        0.1908148592  MEMB      130             0.0000000000
     17305       136  POPC      H18R           31.6233009361       34.3852496677        0.2454496131  MEMB      130             0.0000000000
     17306       136  POPC      H18S           33.2333237095       34.9935289120        0.9025315923  MEMB      130             0.0000000000
     17307       136  POPC      H18T           32.8942076010       33.2568218937        0.5214280265  MEMB      130             0.0000000000
     17308       136  POPC      C33            30.0385558751       28.4615957814      -12.3048828422  MEMB      130             0.0000000000
     17309       136  POPC      H3X            30.9367002425       29.0858702878      -12.4996623299  MEMB      130             0.0000000000
     17310       136  POPC      H3Y            29.8811028797       27.6642640681      -13.0623733227  MEMB      130             0.0000000000
     17311       136  POPC      C34            30.0544641577       27.7978203590      -10.8424382851  MEMB      130             0.0000000000
     17312       136  POPC      H4X            30.7301440840       26.9159394538      -10.8504174466  MEMB      130             0.0000000000
     17313       136  POPC      H4Y            29.0033476698       27.4396549141      -10.8078976266  MEMB      130             0.0000000000
     17314       136  POPC      C35            30.3565499747       28.7468575449       -9.6079338955  MEMB      130             0.0000000000
     17315       136  POPC      H5X            29.9099562743       28.3323470163       -8.6789262353  MEMB      130             0.0000000000
     17316       136  POPC      H5Y            29.8667559854       29.7145587691       -9.8487193219  MEMB      130             0.0000000000
     17317       136  POPC      C36            31.8247296580       28.9480348322       -9.3459790188  MEMB      130             0.0000000000
     17318       136  POPC      H6X            32.2920183873       29.6665943549      -10.0528263778  MEMB      130             0.0000000000
     17319       136  POPC      H6Y            32.2670379445       27.9559102261       -9.5791600715  MEMB      130             0.0000000000
     17320       136  POPC      C37            32.1576059351       29.3411880903       -7.9083687308  MEMB      130             0.0000000000
     17321       136  POPC      H7X            33.2468929980       29.1383507865       -7.8269325730  MEMB      130             0.0000000000
     17322       136  POPC      H7Y            31.6364884416       28.6594346906       -7.2026992621  MEMB      130             0.0000000000
     17323       136  POPC      C38            31.8010634616       30.7555378434       -7.4477977717  MEMB      130             0.0000000000
     17324       136  POPC      H8X            31.7445451272       31.4191228506       -8.3370574946  MEMB      130             0.0000000000
     17325       136  POPC      H8Y            32.6071944100       31.0999822811       -6.7652792091  MEMB      130             0.0000000000
     17326       136  POPC      C39            30.5151358518       30.8924764976       -6.5335598200  MEMB      130             0.0000000000
     17327       136  POPC      H9X            29.5897358920       30.6344778334       -7.0915853751  MEMB      130             0.0000000000
     17328       136  POPC      H9Y            30.4774255465       31.9872369868       -6.3480923360  MEMB      130             0.0000000000
     17329       136  POPC      C310           30.5371428410       30.2455939238       -5.1508644795  MEMB      130             0.0000000000
     17330       136  POPC      H10X           31.4038915114       30.7147009798       -4.6380230202  MEMB      130             0.0000000000
     17331       136  POPC      H10Y           30.6387806369       29.1399994775       -5.1102234442  MEMB      130             0.0000000000
     17332       136  POPC      C311           29.1911390455       30.4374772529       -4.4511918411  MEMB      130             0.0000000000
     17333       136  POPC      H11X           28.3950368524       29.8384210400       -4.9427946932  MEMB      130             0.0000000000
     17334       136  POPC      H11Y           28.8717282199       31.5012722301       -4.4764510609  MEMB      130             0.0000000000
     17335       136  POPC      C312           29.2860509341       30.2150935468       -2.8996248174  MEMB      130             0.0000000000
     17336       136  POPC      H12X           30.2956228656       30.5132199030       -2.5443705364  MEMB      130             0.0000000000
     17337       136  POPC      H12Y           29.2835317013       29.1065429194       -2.8259354832  MEMB      130             0.0000000000
     17338       136  POPC      C313           28.1604784986       30.7919468737       -2.0800663555  MEMB      130             0.0000000000
     17339       136  POPC      H13X           27.2180581830       30.4061896863       -2.5243144228  MEMB      130             0.0000000000
     17340       136  POPC      H13Y           28.0192141176       31.8695853310       -2.3104146341  MEMB      130             0.0000000000
     17341       136  POPC      C314           28.2230968314       30.5816241472       -0.5275925733  MEMB      130             0.0000000000
     17342       136  POPC      H14X           27.5850621640       31.3459409743       -0.0345891631  MEMB      130             0.0000000000
     17343       136  POPC      H14Y           29.2887179176       30.8473183341       -0.3597254281  MEMB      130             0.0000000000
     17344       136  POPC      C315           27.7823663064       29.1775741587       -0.2890491234  MEMB      130             0.0000000000
     17345       136  POPC      H15X           28.4252532180       28.4978023838       -0.8881551053  MEMB      130             0.0000000000
     17346       136  POPC      H15Y           26.7245233462       28.9005172118       -0.4853366192  MEMB      130             0.0000000000
     17347       136  POPC      C316           28.0475829577       28.8555187297        1.1850346792  MEMB      130             0.0000000000
     17348       136  POPC      H16X           27.5008594542       29.5168145728        1.8907972707  MEMB      130             0.0000000000
     17349       136  POPC      H16Y           29.1005771118       29.1538852305        1.3760895063  MEMB      130             0.0000000000
     17350       136  POPC      H16Z           27.8375081106       27.7877220442        1.4086408436  MEMB      130             0.0000000000
