PSF EXT CMAP XPLOR

         3 !NTITLE
* GENERATED BY CHARMM-GUI (HTTP://WWW.CHARMM-GUI.ORG) V3.7 ON AUG, 30. 2026. JOB
* READ PDB, MANIPULATE STRUCTURE IF NEEDED, AND GENERATE TOPOLOGY FILE          
*  DATE:     8/30/26     14:13:29      CREATED BY USER: charmm-gui              

       112 !NATOM
         1 PROA     1        ASN      N        NH3     -0.300000       14.0070           0
         2 PROA     1        ASN      HT1      HC       0.330000       1.00800           0
         3 PROA     1        ASN      HT2      HC       0.330000       1.00800           0
         4 PROA     1        ASN      HT3      HC       0.330000       1.00800           0
         5 PROA     1        ASN      CA       CT1      0.210000       12.0110           0
         6 PROA     1        ASN      HA       HB1      0.100000       1.00800           0
         7 PROA     1        ASN      CB       CT2     -0.180000       12.0110           0
         8 PROA     1        ASN      HB1      HA2      0.900000E-01   1.00800           0
         9 PROA     1        ASN      HB2      HA2      0.900000E-01   1.00800           0
        10 PROA     1        ASN      CG       CC       0.550000       12.0110           0
        11 PROA     1        ASN      OD1      O       -0.550000       15.9994           0
        12 PROA     1        ASN      ND2      NH2     -0.620000       14.0070           0
        13 PROA     1        ASN      HD21     H        0.320000       1.00800           0
        14 PROA     1        ASN      HD22     H        0.300000       1.00800           0
        15 PROA     1        ASN      C        CC       0.340000       12.0110           0
        16 PROA     1        ASN      OT1      OC      -0.670000       15.9994           0
        17 PROA     1        ASN      OT2      OC      -0.670000       15.9994           0
        18 PROB     2        ASN      N        NH3     -0.300000       14.0070           0
        19 PROB     2        ASN      HT1      HC       0.330000       1.00800           0
        20 PROB     2        ASN      HT2      HC       0.330000       1.00800           0
        21 PROB     2        ASN      HT3      HC       0.330000       1.00800           0
        22 PROB     2        ASN      CA       CT1      0.210000       12.0110           0
        23 PROB     2        ASN      HA       HB1      0.100000       1.00800           0
        24 PROB     2        ASN      CB       CT2     -0.180000       12.0110           0
        25 PROB     2        ASN      HB1      HA2      0.900000E-01   1.00800           0
        26 PROB     2        ASN      HB2      HA2      0.900000E-01   1.00800           0
        27 PROB     2        ASN      CG       CC       0.550000       12.0110           0
        28 PROB     2        ASN      OD1      O       -0.550000       15.9994           0
        29 PROB     2        ASN      ND2      NH2     -0.620000       14.0070           0
        30 PROB     2        ASN      HD21     H        0.320000       1.00800           0
        31 PROB     2        ASN      HD22     H        0.300000       1.00800           0
        32 PROB     2        ASN      C        CC       0.340000       12.0110           0
        33 PROB     2        ASN      OT1      OC      -0.670000       15.9994           0
        34 PROB     2        ASN      OT2      OC      -0.670000       15.9994           0
        35 PROC     3        ARG      N        NH3     -0.300000       14.0070           0
        36 PROC     3        ARG      HT1      HC       0.330000       1.00800           0
        37 PROC     3        ARG      HT2      HC       0.330000       1.00800           0
        38 PROC     3        ARG      HT3      HC       0.330000       1.00800           0
        39 PROC     3        ARG      CA       CT1      0.210000       12.0110           0
        40 PROC     3        ARG      HA       HB1      0.100000       1.00800           0
        41 PROC     3        ARG      CB       CT2     -0.180000       12.0110           0
        42 PROC     3        ARG      HB1      HA2      0.900000E-01   1.00800           0
        43 PROC     3        ARG      HB2      HA2      0.900000E-01   1.00800           0
        44 PROC     3        ARG      CG       CT2     -0.180000       12.0110           0
        45 PROC     3        ARG      HG1      HA2      0.900000E-01   1.00800           0
        46 PROC     3        ARG      HG2      HA2      0.900000E-01   1.00800           0
        47 PROC     3        ARG      CD       CT2      0.200000       12.0110           0
        48 PROC     3        ARG      HD1      HA2      0.900000E-01   1.00800           0
        49 PROC     3        ARG      HD2      HA2      0.900000E-01   1.00800           0
        50 PROC     3        ARG      NE       NC2     -0.700000       14.0070           0
        51 PROC     3        ARG      HE       HC       0.440000       1.00800           0
        52 PROC     3        ARG      CZ       C        0.640000       12.0110           0
        53 PROC     3        ARG      NH1      NC2     -0.800000       14.0070           0
        54 PROC     3        ARG      HH11     HC       0.460000       1.00800           0
        55 PROC     3        ARG      HH12     HC       0.460000       1.00800           0
        56 PROC     3        ARG      NH2      NC2     -0.800000       14.0070           0
        57 PROC     3        ARG      HH21     HC       0.460000       1.00800           0
        58 PROC     3        ARG      HH22     HC       0.460000       1.00800           0
        59 PROC     3        ARG      C        CC       0.340000       12.0110           0
        60 PROC     3        ARG      OT1      OC      -0.670000       15.9994           0
        61 PROC     3        ARG      OT2      OC      -0.670000       15.9994           0
        62 PROD     4        PRO      N        NP      -0.700000E-01   14.0070           0
        63 PROD     4        PRO      HN1      HC       0.240000       1.00800           0
        64 PROD     4        PRO      HN2      HC       0.240000       1.00800           0
        65 PROD     4        PRO      CD       CP3      0.160000       12.0110           0
        66 PROD     4        PRO      HD1      HA2      0.900000E-01   1.00800           0
        67 PROD     4        PRO      HD2      HA2      0.900000E-01   1.00800           0
        68 PROD     4        PRO      CA       CP1      0.160000       12.0110           0
        69 PROD     4        PRO      HA       HB1      0.900000E-01   1.00800           0
        70 PROD     4        PRO      CB       CP2     -0.180000       12.0110           0
        71 PROD     4        PRO      HB1      HA2      0.900000E-01   1.00800           0
        72 PROD     4        PRO      HB2      HA2      0.900000E-01   1.00800           0
        73 PROD     4        PRO      CG       CP2     -0.180000       12.0110           0
        74 PROD     4        PRO      HG1      HA2      0.900000E-01   1.00800           0
        75 PROD     4        PRO      HG2      HA2      0.900000E-01   1.00800           0
        76 PROD     4        PRO      C        CC       0.340000       12.0110           0
        77 PROD     4        PRO      OT1      OC      -0.670000       15.9994           0
        78 PROD     4        PRO      OT2      OC      -0.670000       15.9994           0
        79 PROE     5        ASN      N        NH3     -0.300000       14.0070           0
        80 PROE     5        ASN      HT1      HC       0.330000       1.00800           0
        81 PROE     5        ASN      HT2      HC       0.330000       1.00800           0
        82 PROE     5        ASN      HT3      HC       0.330000       1.00800           0
        83 PROE     5        ASN      CA       CT1      0.210000       12.0110           0
        84 PROE     5        ASN      HA       HB1      0.100000       1.00800           0
        85 PROE     5        ASN      CB       CT2     -0.180000       12.0110           0
        86 PROE     5        ASN      HB1      HA2      0.900000E-01   1.00800           0
        87 PROE     5        ASN      HB2      HA2      0.900000E-01   1.00800           0
        88 PROE     5        ASN      CG       CC       0.550000       12.0110           0
        89 PROE     5        ASN      OD1      O       -0.550000       15.9994           0
        90 PROE     5        ASN      ND2      NH2     -0.620000       14.0070           0
        91 PROE     5        ASN      HD21     H        0.320000       1.00800           0
        92 PROE     5        ASN      HD22     H        0.300000       1.00800           0
        93 PROE     5        ASN      C        CC       0.340000       12.0110           0
        94 PROE     5        ASN      OT1      OC      -0.670000       15.9994           0
        95 PROE     5        ASN      OT2      OC      -0.670000       15.9994           0
        96 PROF     6        PRO      N        NP      -0.700000E-01   14.0070           0
        97 PROF     6        PRO      HN1      HC       0.240000       1.00800           0
        98 PROF     6        PRO      HN2      HC       0.240000       1.00800           0
        99 PROF     6        PRO      CD       CP3      0.160000       12.0110           0
       100 PROF     6        PRO      HD1      HA2      0.900000E-01   1.00800           0
       101 PROF     6        PRO      HD2      HA2      0.900000E-01   1.00800           0
       102 PROF     6        PRO      CA       CP1      0.160000       12.0110           0
       103 PROF     6        PRO      HA       HB1      0.900000E-01   1.00800           0
       104 PROF     6        PRO      CB       CP2     -0.180000       12.0110           0
       105 PROF     6        PRO      HB1      HA2      0.900000E-01   1.00800           0
       106 PROF     6        PRO      HB2      HA2      0.900000E-01   1.00800           0
       107 PROF     6        PRO      CG       CP2     -0.180000       12.0110           0
       108 PROF     6        PRO      HG1      HA2      0.900000E-01   1.00800           0
       109 PROF     6        PRO      HG2      HA2      0.900000E-01   1.00800           0
       110 PROF     6        PRO      C        CC       0.340000       12.0110           0
       111 PROF     6        PRO      OT1      OC      -0.670000       15.9994           0
       112 PROF     6        PRO      OT2      OC      -0.670000       15.9994           0

       108 !NBOND: bonds
         2         1         3         1         4         1         7         5
        10         7        12        10         1         5        15         5
         5         6         7         8         7         9        12        13
        12        14        10        11        15        17        15        16
        19        18        20        18        21        18        24        22
        27        24        29        27        18        22        32        22
        22        23        24        25        24        26        29        30
        29        31        27        28        32        34        32        33
        36        35        37        35        38        35        41        39
        44        41        47        44        50        47        52        50
        56        52        35        39        59        39        39        40
        41        42        41        43        44        45        44        46
        47        48        47        49        50        51        53        54
        53        55        56        57        56        58        52        53
        59        61        59        60        63        62        64        62
        76        68        62        68        68        70        70        73
        73        65        62        65        69        68        74        73
        75        73        66        65        67        65        71        70
        72        70        76        78        76        77        80        79
        81        79        82        79        85        83        88        85
        90        88        79        83        93        83        83        84
        85        86        85        87        90        91        90        92
        88        89        93        95        93        94        97        96
        98        96       110       102        96       102       102       104
       104       107       107        99        96        99       103       102
       108       107       109       107       100        99       101        99
       105       104       106       104       110       112       110       111

       192 !NTHETA: angles
         2         1         3         2         1         4         2         1         5
         3         1         4         3         1         5         4         1         5
         1         5         6         1         5         7         1         5        15
         6         5         7         6         5        15         7         5        15
         5         7         8         5         7         9         5         7        10
         8         7         9         8         7        10         9         7        10
         7        10        11         7        10        12        11        10        12
        10        12        13        10        12        14        13        12        14
         5        15        16         5        15        17        16        15        17
        19        18        20        19        18        21        19        18        22
        20        18        21        20        18        22        21        18        22
        18        22        23        18        22        24        18        22        32
        23        22        24        23        22        32        24        22        32
        22        24        25        22        24        26        22        24        27
        25        24        26        25        24        27        26        24        27
        24        27        28        24        27        29        28        27        29
        27        29        30        27        29        31        30        29        31
        22        32        33        22        32        34        33        32        34
        36        35        37        36        35        38        36        35        39
        37        35        38        37        35        39        38        35        39
        35        39        40        35        39        41        35        39        59
        40        39        41        40        39        59        41        39        59
        39        41        42        39        41        43        39        41        44
        42        41        43        42        41        44        43        41        44
        41        44        45        41        44        46        41        44        47
        45        44        46        45        44        47        46        44        47
        44        47        48        44        47        49        44        47        50
        48        47        49        48        47        50        49        47        50
        47        50        51        47        50        52        51        50        52
        50        52        53        50        52        56        53        52        56
        52        53        54        52        53        55        54        53        55
        52        56        57        52        56        58        57        56        58
        39        59        60        39        59        61        60        59        61
        63        62        64        63        62        65        63        62        68
        64        62        65        64        62        68        65        62        68
        62        65        66        62        65        67        62        65        73
        66        65        67        66        65        73        67        65        73
        62        68        69        62        68        70        62        68        76
        69        68        70        69        68        76        70        68        76
        68        70        71        68        70        72        68        70        73
        71        70        72        71        70        73        72        70        73
        65        73        70        65        73        74        65        73        75
        70        73        74        70        73        75        74        73        75
        68        76        77        68        76        78        77        76        78
        80        79        81        80        79        82        80        79        83
        81        79        82        81        79        83        82        79        83
        79        83        84        79        83        85        79        83        93
        84        83        85        84        83        93        85        83        93
        83        85        86        83        85        87        83        85        88
        86        85        87        86        85        88        87        85        88
        85        88        89        85        88        90        89        88        90
        88        90        91        88        90        92        91        90        92
        83        93        94        83        93        95        94        93        95
        97        96        98        97        96        99        97        96       102
        98        96        99        98        96       102        99        96       102
        96        99       100        96        99       101        96        99       107
       100        99       101       100        99       107       101        99       107
        96       102       103        96       102       104        96       102       110
       103       102       104       103       102       110       104       102       110
       102       104       105       102       104       106       102       104       107
       105       104       106       105       104       107       106       104       107
        99       107       104        99       107       108        99       107       109
       104       107       108       104       107       109       108       107       109
       102       110       111       102       110       112       111       110       112

       264 !NPHI: dihedrals
         1         5         7         8         1         5         7         9
         1         5         7        10         1         5        15        16
         1         5        15        17         2         1         5         6
         2         1         5         7         2         1         5        15
         3         1         5         6         3         1         5         7
         3         1         5        15         4         1         5         6
         4         1         5         7         4         1         5        15
         5         7        10        11         5         7        10        12
         6         5         7         8         6         5         7         9
         6         5         7        10         6         5        15        16
         6         5        15        17         7         5        15        16
         7         5        15        17         7        10        12        13
         7        10        12        14         8         7         5        15
         8         7        10        11         8         7        10        12
         9         7         5        15         9         7        10        11
         9         7        10        12        10         7         5        15
        11        10        12        13        11        10        12        14
        18        22        24        25        18        22        24        26
        18        22        24        27        18        22        32        33
        18        22        32        34        19        18        22        23
        19        18        22        24        19        18        22        32
        20        18        22        23        20        18        22        24
        20        18        22        32        21        18        22        23
        21        18        22        24        21        18        22        32
        22        24        27        28        22        24        27        29
        23        22        24        25        23        22        24        26
        23        22        24        27        23        22        32        33
        23        22        32        34        24        22        32        33
        24        22        32        34        24        27        29        30
        24        27        29        31        25        24        22        32
        25        24        27        28        25        24        27        29
        26        24        22        32        26        24        27        28
        26        24        27        29        27        24        22        32
        28        27        29        30        28        27        29        31
        35        39        41        42        35        39        41        43
        35        39        41        44        35        39        59        60
        35        39        59        61        36        35        39        40
        36        35        39        41        36        35        39        59
        37        35        39        40        37        35        39        41
        37        35        39        59        38        35        39        40
        38        35        39        41        38        35        39        59
        39        41        44        45        39        41        44        46
        39        41        44        47        40        39        41        42
        40        39        41        43        40        39        41        44
        40        39        59        60        40        39        59        61
        41        39        59        60        41        39        59        61
        41        44        47        48        41        44        47        49
        41        44        47        50        42        41        39        59
        42        41        44        45        42        41        44        46
        42        41        44        47        43        41        39        59
        43        41        44        45        43        41        44        46
        43        41        44        47        44        41        39        59
        44        47        50        51        44        47        50        52
        45        44        47        48        45        44        47        49
        45        44        47        50        46        44        47        48
        46        44        47        49        46        44        47        50
        47        50        52        53        47        50        52        56
        48        47        50        51        48        47        50        52
        49        47        50        51        49        47        50        52
        50        52        53        54        50        52        53        55
        50        52        56        57        50        52        56        58
        51        50        52        53        51        50        52        56
        53        52        56        57        53        52        56        58
        54        53        52        56        55        53        52        56
        62        65        73        70        62        65        73        74
        62        65        73        75        62        68        70        71
        62        68        70        72        62        68        70        73
        62        68        76        77        62        68        76        78
        63        62        65        66        63        62        65        67
        63        62        65        73        63        62        68        69
        63        62        68        70        63        62        68        76
        64        62        65        66        64        62        65        67
        64        62        65        73        64        62        68        69
        64        62        68        70        64        62        68        76
        65        62        68        69        65        62        68        70
        65        62        68        76        65        73        70        68
        65        73        70        71        65        73        70        72
        66        65        62        68        66        65        73        70
        66        65        73        74        66        65        73        75
        67        65        62        68        67        65        73        70
        67        65        73        74        67        65        73        75
        68        62        65        73        68        70        73        74
        68        70        73        75        69        68        70        71
        69        68        70        72        69        68        70        73
        69        68        76        77        69        68        76        78
        70        68        76        77        70        68        76        78
        71        70        68        76        71        70        73        74
        71        70        73        75        72        70        68        76
        72        70        73        74        72        70        73        75
        73        70        68        76        79        83        85        86
        79        83        85        87        79        83        85        88
        79        83        93        94        79        83        93        95
        80        79        83        84        80        79        83        85
        80        79        83        93        81        79        83        84
        81        79        83        85        81        79        83        93
        82        79        83        84        82        79        83        85
        82        79        83        93        83        85        88        89
        83        85        88        90        84        83        85        86
        84        83        85        87        84        83        85        88
        84        83        93        94        84        83        93        95
        85        83        93        94        85        83        93        95
        85        88        90        91        85        88        90        92
        86        85        83        93        86        85        88        89
        86        85        88        90        87        85        83        93
        87        85        88        89        87        85        88        90
        88        85        83        93        89        88        90        91
        89        88        90        92        96        99       107       104
        96        99       107       108        96        99       107       109
        96       102       104       105        96       102       104       106
        96       102       104       107        96       102       110       111
        96       102       110       112        97        96        99       100
        97        96        99       101        97        96        99       107
        97        96       102       103        97        96       102       104
        97        96       102       110        98        96        99       100
        98        96        99       101        98        96        99       107
        98        96       102       103        98        96       102       104
        98        96       102       110        99        96       102       103
        99        96       102       104        99        96       102       110
        99       107       104       102        99       107       104       105
        99       107       104       106       100        99        96       102
       100        99       107       104       100        99       107       108
       100        99       107       109       101        99        96       102
       101        99       107       104       101        99       107       108
       101        99       107       109       102        96        99       107
       102       104       107       108       102       104       107       109
       103       102       104       105       103       102       104       106
       103       102       104       107       103       102       110       111
       103       102       110       112       104       102       110       111
       104       102       110       112       105       104       102       110
       105       104       107       108       105       104       107       109
       106       104       102       110       106       104       107       108
       106       104       107       109       107       104       102       110

        21 !NIMPHI: impropers
        10        12         7        11        10         7        12        11
        12        10        13        14        12        10        14        13
        15         5        17        16        27        29        24        28
        27        24        29        28        29        27        30        31
        29        27        31        30        32        22        34        33
        52        53        56        50        53        54        55        52
        56        57        58        52        59        39        61        60
        76        68        78        77        88        90        85        89
        88        85        90        89        90        88        91        92
        90        88        92        91        93        83        95        94
       110       102       112       111

        27 !NDON: donors
         1         2         1         3         1         4        12        13
        12        14        18        19        18        20        18        21
        29        30        29        31        35        36        35        37
        35        38        50        51        53        54        53        55
        56        57        56        58        62        63        62        64
        79        80        79        81        79        82        90        91
        90        92        96        97        96        98

        15 !NACC: acceptors
        11        10        16        15        17        15        28        27
        33        32        34        32        60        59        61        59
        77        76        78        76        89        88        94        93
        95        93       111       110       112       110

         0 !NNB

         0         0         0         0         0         0         0         0
         0         0         0         0         0         0         0         0
         0         0         0         0         0         0         0         0
         0         0         0         0         0         0         0         0
         0         0         0         0         0         0         0         0
         0         0         0         0         0         0         0         0
         0         0         0         0         0         0         0         0
         0         0         0         0         0         0         0         0
         0         0         0         0         0         0         0         0
         0         0         0         0         0         0         0         0
         0         0         0         0         0         0         0         0
         0         0         0         0         0         0         0         0
         0         0         0         0         0         0         0         0
         0         0         0         0         0         0         0         0

        28         0 !NGRP NST2
         0         2         0         6         1         0         9         1         0
        11         1         0        14         2         0        17         2         0
        23         1         0        26         1         0        28         1         0
        31         2         0        34         2         0        40         1         0
        43         1         0        46         2         0        58         2         0
        61         2         0        69         1         0        72         1         0
        75         2         0        78         2         0        84         1         0
        87         1         0        89         1         0        92         2         0
        95         2         0       103         1         0       106         1         0
       109         2         0

         0         0 !NUMLP NUMLPH

         0 !NCRTERM: cross-terms

