* GENERATED BY CHARMM-GUI (HTTP://WWW.CHARMM-GUI.ORG) V3.7 ON AUG, 30. 2026. JOB
* READ PDB, MANIPULATE STRUCTURE IF NEEDED, AND GENERATE TOPOLOGY FILE
*  DATE:     8/30/26     14:13:29      CREATED BY USER: charmm-gui
*
       112  EXT
         1         1  ASN       N               0.0000000000        0.0000000000        0.0000000000  PROA      1               0.0000000000
         2         1  ASN       HT1            -0.3471591336        0.0967742993        0.9755589531  PROA      1               0.0000000000
         3         1  ASN       HT2            -0.3466664918       -0.8932803548       -0.4043169392  PROA      1               0.0000000000
         4         1  ASN       HT3            -0.3466664918        0.7964373178       -0.5719349425  PROA      1               0.0000000000
         5         1  ASN       CA              1.4580000000        0.0000000000        0.0000000000  PROA      1               0.0000000000
         6         1  ASN       HA              1.8074675767       -0.5761857477        0.8435537763  PROA      1               0.0000000000
         7         1  ASN       CB              1.8910000000       -0.6310000000       -1.3270000000  PROA      1               0.0000000000
         8         1  ASN       HB1             2.9987616760       -0.5915237994       -1.3535891046  PROA      1               0.0000000000
         9         1  ASN       HB2             1.4791156420        0.0076723056       -2.1343724317  PROA      1               0.0000000000
        10         1  ASN       CG              1.5030000000       -2.0750000000       -1.6800000000  PROA      1               0.0000000000
        11         1  ASN       OD1             1.8170000000       -2.4770000000       -2.7860000000  PROA      1               0.0000000000
        12         1  ASN       ND2             0.8470000000       -2.8710000000       -0.8200000000  PROA      1               0.0000000000
        13         1  ASN       HD21            0.4795790551       -3.7475805312       -1.1308189530  PROA      1               0.0000000000
        14         1  ASN       HD22            0.7259491352       -2.5871383111        0.1311935816  PROA      1               0.0000000000
        15         1  ASN       C               2.0090000000        1.4200000000        0.0000000000  PROA      1               0.0000000000
        16         1  ASN       OT1             1.1858174955        2.3739237728       -0.0000000000  PROA      1               0.0000000000
        17         1  ASN       OT2             3.2601564638        1.5690218211        0.0000000000  PROA      1               0.0000000000
        18         2  ASN       N               3.8000000000        0.0000000000        0.0000000000  PROB      2               0.0000000000
        19         2  ASN       HT1             3.4528408664        0.4228504232        0.8844648413  PROB      2               0.0000000000
        20         2  ASN       HT2             3.4533335082       -0.9775444059       -0.0763473249  PROB      2               0.0000000000
        21         2  ASN       HT3             3.4533335082        0.5543936368       -0.8087457419  PROB      2               0.0000000000
        22         2  ASN       CA              5.2580000000        0.0000000000        0.0000000000  PROB      2               0.0000000000
        23         2  ASN       HA              5.5913474180       -0.7192666609        0.7332564323  PROB      2               0.0000000000
        24         2  ASN       CB              5.7810000000       -0.3680000000       -1.3940000000  PROB      2               0.0000000000
        25         2  ASN       HB1             6.8829370703       -0.2337091615       -1.3929332970  PROB      2               0.0000000000
        26         2  ASN       HB2             5.3272823145        0.3324077828       -2.1260311972  PROB      2               0.0000000000
        27         2  ASN       CG              5.4900000000       -1.7970000000       -1.8800000000  PROB      2               0.0000000000
        28         2  ASN       OD1             5.7880000000       -2.1090000000       -3.0210000000  PROB      2               0.0000000000
        29         2  ASN       ND2             4.9160000000       -2.6760000000       -1.0470000000  PROB      2               0.0000000000
        30         2  ASN       HD21            4.5879918985       -3.5541432175       -1.3952458541  PROB      2               0.0000000000
        31         2  ASN       HD22            4.8156983120       -2.4537527842       -0.0771826221  PROB      2               0.0000000000
        32         2  ASN       C               5.8090000000        1.4200000000        0.0000000000  PROB      2               0.0000000000
        33         2  ASN       OT1             4.9858174955        2.3739237728       -0.0000000000  PROB      2               0.0000000000
        34         2  ASN       OT2             7.0601564638        1.5690218211        0.0000000000  PROB      2               0.0000000000
        35         3  ARG       N               7.6000000000        0.0000000000        0.0000000000  PROC      3               0.0000000000
        36         3  ARG       HT1             7.2528408664        0.4071955248        0.8917804329  PROC      3               0.0000000000
        37         3  ARG       HT2             7.2533335082       -0.9760468851       -0.0935652585  PROC      3               0.0000000000
        38         3  ARG       HT3             7.2533335082        0.5685621339       -0.7988485961  PROC      3               0.0000000000
        39         3  ARG       CA              9.0580000000        0.0000000000        0.0000000000  PROC      3               0.0000000000
        40         3  ARG       HA              9.4407842748       -0.8301137738        0.5714155386  PROC      3               0.0000000000
        41         3  ARG       CB              9.2910000000       -0.1530000000       -1.5380000000  PROC      3               0.0000000000
        42         3  ARG       HB1             8.5210110246        0.4631796599       -2.0452302801  PROC      3               0.0000000000
        43         3  ARG       HB2             9.1235470553       -1.2207471550       -1.7864320371  PROC      3               0.0000000000
        44         3  ARG       CG             10.6580000000        0.2430000000       -2.1440000000  PROC      3               0.0000000000
        45         3  ARG       HG1            11.4147804675       -0.3894840117       -1.6393297974  PROC      3               0.0000000000
        46         3  ARG       HG2            10.8235331716        1.3029008819       -1.8671361268  PROC      3               0.0000000000
        47         3  ARG       CD             10.9540000000        0.1410000000       -3.6700000000  PROC      3               0.0000000000
        48         3  ARG       HD1            10.1034093435        0.5499990504       -4.2558615987  PROC      3               0.0000000000
        49         3  ARG       HD2            11.1420344143       -0.9157024890       -3.9564287167  PROC      3               0.0000000000
        50         3  ARG       NE             12.1560000000        0.9280000000       -3.9870000000  PROC      3               0.0000000000
        51         3  ARG       HE             11.9658750899        1.8842833551       -4.1790544866  PROC      3               0.0000000000
        52         3  ARG       CZ             13.4640000000        0.6110000000       -4.0690000000  PROC      3               0.0000000000
        53         3  ARG       NH1            13.8270000000       -0.6620000000       -3.8350000000  PROC      3               0.0000000000
        54         3  ARG       HH11           13.1338135261       -1.3457453285       -3.6069981619  PROC      3               0.0000000000
        55         3  ARG       HH12           14.7902220967       -0.9252391010       -3.8889292879  PROC      3               0.0000000000
        56         3  ARG       NH2            14.3990000000        1.5250000000       -4.3720000000  PROC      3               0.0000000000
        57         3  ARG       HH21           14.1596101542        2.4955818104       -4.3977575454  PROC      3               0.0000000000
        58         3  ARG       HH22           15.3350210363        1.2354031181       -4.5719956640  PROC      3               0.0000000000
        59         3  ARG       C               9.6090000000        1.4200000000        0.0000000000  PROC      3               0.0000000000
        60         3  ARG       OT1             8.7858174955        2.3739237728       -0.0000000000  PROC      3               0.0000000000
        61         3  ARG       OT2            10.8601564638        1.5690218211        0.0000000000  PROC      3               0.0000000000
        62         4  PRO       N              11.4000000000        0.0000000000        0.0000000000  PROD      4               0.0000000000
        63         4  PRO       HN1            10.9885153637        0.3703551652        0.8328412075  PROD      4               0.0000000000
        64         4  PRO       HN2            10.9885153637        0.4200708226       -0.8089053895  PROD      4               0.0000000000
        65         4  PRO       CD             11.4580000000       -1.4530000000       -0.0440000000  PROD      4               0.0000000000
        66         4  PRO       HD1            10.4685132136       -1.9178101399        0.1414152134  PROD      4               0.0000000000
        67         4  PRO       HD2            12.2020743034       -1.8645474180        0.6676835826  PROD      4               0.0000000000
        68         4  PRO       CA             12.8580000000        0.0000000000        0.0000000000  PROD      4               0.0000000000
        69         4  PRO       HA             13.2438363576       -0.6730315254        0.7480959245  PROD      4               0.0000000000
        70         4  PRO       CB             12.9460000000       -0.4380000000       -1.4670000000  PROD      4               0.0000000000
        71         4  PRO       HB1            13.9615473675       -0.8066347585       -1.7236174173  PROD      4               0.0000000000
        72         4  PRO       HB2            12.6781429903        0.3892415464       -2.1576551860  PROD      4               0.0000000000
        73         4  PRO       CG             11.9060000000       -1.5690000000       -1.5080000000  PROD      4               0.0000000000
        74         4  PRO       HG1            11.0832410576       -1.3677720850       -2.2243210282  PROD      4               0.0000000000
        75         4  PRO       HG2            12.3561525566       -2.5557985572       -1.7406629528  PROD      4               0.0000000000
        76         4  PRO       C              13.4090000000        1.4200000000        0.0000000000  PROD      4               0.0000000000
        77         4  PRO       OT1            12.5858174955        2.3739237728       -0.0000000000  PROD      4               0.0000000000
        78         4  PRO       OT2            14.6601564638        1.5690218211        0.0000000000  PROD      4               0.0000000000
        79         5  ASN       N              15.2000000000        0.0000000000        0.0000000000  PROE      5               0.0000000000
        80         5  ASN       HT1            14.8528408664        0.4165843331        0.8874333943  PROE      5               0.0000000000
        81         5  ASN       HT2            14.8533335082       -0.9769799778       -0.0832592489  PROE      5               0.0000000000
        82         5  ASN       HT3            14.8533335082        0.5600997495       -0.8048044795  PROE      5               0.0000000000
        83         5  ASN       CA             16.6580000000        0.0000000000        0.0000000000  PROE      5               0.0000000000
        84         5  ASN       HA             17.0105668987       -0.7196869827        0.7233788555  PROE      5               0.0000000000
        85         5  ASN       CB             17.0740000000       -0.3830000000       -1.4270000000  PROE      5               0.0000000000
        86         5  ASN       HB1            18.1765970872       -0.2776254525       -1.4981096236  PROE      5               0.0000000000
        87         5  ASN       HB2            16.5913649072        0.3331675548       -2.1241715078  PROE      5               0.0000000000
        88         5  ASN       CG             16.7180000000       -1.8010000000       -1.9090000000  PROE      5               0.0000000000
        89         5  ASN       OD1            17.0190000000       -2.1380000000       -3.0450000000  PROE      5               0.0000000000
        90         5  ASN       ND2            16.0780000000       -2.6590000000       -1.0900000000  PROE      5               0.0000000000
        91         5  ASN       HD21           15.7171249897       -3.5191918393       -1.4503321058  PROE      5               0.0000000000
        92         5  ASN       HD22           15.9640219029       -2.4354081078       -0.1220043083  PROE      5               0.0000000000
        93         5  ASN       C              17.2090000000        1.4200000000        0.0000000000  PROE      5               0.0000000000
        94         5  ASN       OT1            16.3858174955        2.3739237728       -0.0000000000  PROE      5               0.0000000000
        95         5  ASN       OT2            18.4601564638        1.5690218211        0.0000000000  PROE      5               0.0000000000
        96         6  PRO       N              19.0000000000        0.0000000000        0.0000000000  PROF      6               0.0000000000
        97         6  PRO       HN1            18.5934050327        0.3751678036        0.8341741390  PROF      6               0.0000000000
        98         6  PRO       HN2            18.5934050327        0.4297359745       -0.8074183348  PROF      6               0.0000000000
        99         6  PRO       CD             19.0140000000       -1.4440000000       -0.0480000000  PROF      6               0.0000000000
       100         6  PRO       HD1            18.0163594384       -1.8894219555        0.1349754946  PROF      6               0.0000000000
       101         6  PRO       HD2            19.7560351866       -1.8894578632        0.6434611444  PROF      6               0.0000000000
       102         6  PRO       CA             20.4580000000        0.0000000000        0.0000000000  PROF      6               0.0000000000
       103         6  PRO       HA             20.8661292157       -0.7394145062        0.6670291974  PROF      6               0.0000000000
       104         6  PRO       CB             20.4130000000       -0.3090000000       -1.4980000000  PROF      6               0.0000000000
       105         6  PRO       HB1            21.4142878765       -0.5865666361       -1.8896234796  PROF      6               0.0000000000
       106         6  PRO       HB2            20.0234817205        0.5510155462       -2.0824983910  PROF      6               0.0000000000
       107         6  PRO       CG             19.4460000000       -1.4960000000       -1.5260000000  PROF      6               0.0000000000
       108         6  PRO       HG1            18.5968595108       -1.3347399007       -2.2218036503  PROF      6               0.0000000000
       109         6  PRO       HG2            19.9516284661       -2.4486795904       -1.7866310843  PROF      6               0.0000000000
       110         6  PRO       C              21.0090000000        1.4200000000        0.0000000000  PROF      6               0.0000000000
       111         6  PRO       OT1            20.1858174955        2.3739237728       -0.0000000000  PROF      6               0.0000000000
       112         6  PRO       OT2            22.2601564638        1.5690218211        0.0000000000  PROF      6               0.0000000000
