* CALC TOPAREA = 54.0400985
* CALC BOTAREA = 65.542285
* CALC XMAX = 3.58321107
* CALC XMIN = -1.77041003
* CALC YMAX = 2.6262562
* CALC YMIN = -2.85469042
* CALC ZMAX = 11.3324505
* CALC ZMIN = -10.94969
*  DATE:     8/30/26     14:14: 7      CREATED BY USER: charmm-gui
*
       112  EXT
         1         1  ASN       N              -0.2207585364        0.8471050673      -10.9496900286  PROA      1               0.0000000000
         2         1  ASN       HT1            -0.8738400281        1.5674394778      -11.3187468024  PROA      1               0.0000000000
         3         1  ASN       HT2            -0.5003976020       -0.0892537480      -11.3055464578  PROA      1               0.0000000000
         4         1  ASN       HT3             0.7467310460        1.0623721961      -11.2646878182  PROA      1               0.0000000000
         5         1  ASN       CA             -0.2688175800        0.8474491781       -9.4924823530  PROA      1               0.0000000000
         6         1  ASN       HA             -1.2930698884        0.9772511193       -9.1766354892  PROA      1               0.0000000000
         7         1  ASN       CB              0.2892674808       -0.5056404576       -9.0405216215  PROA      1               0.0000000000
         8         1  ASN       HB1             0.2988269392       -0.4935362130       -7.9318452099  PROA      1               0.0000000000
         9         1  ASN       HB2             1.3300371863       -0.5647156547       -9.4182911585  PROA      1               0.0000000000
        10         1  ASN       CG             -0.3930028358       -1.8195530537       -9.4509237471  PROA      1               0.0000000000
        11         1  ASN       OD1             0.1559571628       -2.8546904216       -9.1184037483  PROA      1               0.0000000000
        12         1  ASN       ND2            -1.5423473095       -1.8433628214      -10.1451804545  PROA      1               0.0000000000
        13         1  ASN       HD21           -1.8800606987       -2.7051317660      -10.5237355400  PROA      1               0.0000000000
        14         1  ASN       HD22           -2.0604607115       -0.9993231454      -10.2835839519  PROA      1               0.0000000000
        15         1  ASN       C               0.6558490497        1.9089568097       -8.9109377099  PROA      1               0.0000000000
        16         1  ASN       OT1             1.3163540751        2.6217719006       -9.7129525212  PROA      1               0.0000000000
        17         1  ASN       OT2             0.7135531686        2.0206383141       -7.6572242353  PROA      1               0.0000000000
        18         2  ASN       N              -0.3460153030        0.8480019267       -7.1517550716  PROB      2               0.0000000000
        19         2  ASN       HT1            -0.7145432567        1.7515460488       -7.5114704682  PROB      2               0.0000000000
        20         2  ASN       HT2            -0.9266083271        0.0665365247       -7.5175736085  PROB      2               0.0000000000
        21         2  ASN       HT3             0.6376725847        0.7250357986       -7.4661387656  PROB      2               0.0000000000
        22         2  ASN       CA             -0.3940743467        0.8483460374       -5.6945473959  PROB      2               0.0000000000
        23         2  ASN       HA             -1.4303995978        0.7979258504       -5.3951850659  PROB      2               0.0000000000
        24         2  ASN       CB              0.3857181602       -0.3526526514       -5.1452616819  PROB      2               0.0000000000
        25         2  ASN       HB1             0.4377631853       -0.2513083922       -4.0410329327  PROB      2               0.0000000000
        26         2  ASN       HB2             1.4125741804       -0.3155429761       -5.5653688823  PROB      2               0.0000000000
        27         2  ASN       CG             -0.1904340276       -1.7436850655       -5.4550930542  PROB      2               0.0000000000
        28         2  ASN       OD1             0.4449564459       -2.7348069693       -5.1357416522  PROB      2               0.0000000000
        29         2  ASN       ND2            -1.3774204036       -1.8474503643       -6.0685277335  PROB      2               0.0000000000
        30         2  ASN       HD21           -1.6895111927       -2.7352414422       -6.4067973615  PROB      2               0.0000000000
        31         2  ASN       HD22           -1.9510402153       -1.0370873233       -6.1879934337  PROB      2               0.0000000000
        32         2  ASN       C               0.5305922830        1.9098536691       -5.1130027528  PROB      2               0.0000000000
        33         2  ASN       OT1             1.1910973085        2.6226687599       -5.9150175642  PROB      2               0.0000000000
        34         2  ASN       OT2             0.5882964019        2.0215351734       -3.8592892783  PROB      2               0.0000000000
        35         3  ARG       N              -0.4712720697        0.8488987860       -3.3538201145  PROC      3               0.0000000000
        36         3  ARG       HT1            -0.8556593348        1.7456015575       -3.7140569394  PROC      3               0.0000000000
        37         3  ARG       HT2            -1.0380083486        0.0571145015       -3.7191792160  PROC      3               0.0000000000
        38         3  ARG       HT3             0.5144296489        0.7430977505       -3.6681414453  PROC      3               0.0000000000
        39         3  ARG       CA             -0.5193311133        0.8492428968       -1.8966124389  PROC      3               0.0000000000
        40         3  ARG       HA             -1.5099831608        0.6084678089       -1.5462351080  PROC      3               0.0000000000
        41         3  ARG       CB              0.5203461471       -0.2867846577       -1.6289286896  PROC      3               0.0000000000
        42         3  ARG       HB1             1.3337680005       -0.1633663005       -2.3725386345  PROC      3               0.0000000000
        43         3  ARG       HB2             0.0025082201       -1.2499488868       -1.8133236514  PROC      3               0.0000000000
        44         3  ARG       CG              1.1909212525       -0.3930496215       -0.2390445989  PROC      3               0.0000000000
        45         3  ARG       HG1             0.3690217540       -0.5303584761        0.4910733417  PROC      3               0.0000000000
        46         3  ARG       HG2             1.6823731637        0.5831372785       -0.0574437461  PROC      3               0.0000000000
        47         3  ARG       CD              2.2534195986       -1.4829705780        0.0924151621  PROC      3               0.0000000000
        48         3  ARG       HD1             2.9906783646       -1.5666644750       -0.7343032571  PROC      3               0.0000000000
        49         3  ARG       HD2             1.7595822004       -2.4630375037        0.2644963821  PROC      3               0.0000000000
        50         3  ARG       NE              2.9731495108       -1.1050336900        1.3187163332  PROC      3               0.0000000000
        51         3  ARG       HE              3.7578261153       -0.5178909929        1.1542282112  PROC      3               0.0000000000
        52         3  ARG       CZ              2.7808153202       -1.3961404862        2.6211530465  PROC      3               0.0000000000
        53         3  ARG       NH1             1.7488170283       -2.1921067154        2.9505028418  PROC      3               0.0000000000
        54         3  ARG       HH11            1.1473578131       -2.5518690970        2.2371881558  PROC      3               0.0000000000
        55         3  ARG       HH12            1.5825729337       -2.4244634426        3.9088207704  PROC      3               0.0000000000
        56         3  ARG       NH2             3.5832110670       -0.9140401226        3.5830107829  PROC      3               0.0000000000
        57         3  ARG       HH21            4.2547751339       -0.2057474446        3.3654718522  PROC      3               0.0000000000
        58         3  ARG       HH22            3.5094800530       -1.2631390572        4.5171915317  PROC      3               0.0000000000
        59         3  ARG       C               0.4053355164        1.9107505284       -1.3150677958  PROC      3               0.0000000000
        60         3  ARG       OT1             1.0658405418        2.6235656193       -2.1170826071  PROC      3               0.0000000000
        61         3  ARG       OT2             0.4630396353        2.0224320328       -0.0613543212  PROC      3               0.0000000000
        62         4  PRO       N              -0.5965288363        0.8497956454        0.4441148425  PROD      4               0.0000000000
        63         4  PRO       HN1            -0.9592266337        1.6797924890        0.0202486153  PROD      4               0.0000000000
        64         4  PRO       HN2             0.3002293585        0.6263087084        0.0620345368  PROD      4               0.0000000000
        65         4  PRO       CD             -1.5303106641       -0.2654641124        0.4716134016  PROD      4               0.0000000000
        66         4  PRO       HD1            -1.9448242431       -0.4899446469       -0.5320291396  PROD      4               0.0000000000
        67         4  PRO       HD2            -2.3597441939       -0.1001141767        1.1886983243  PROD      4               0.0000000000
        68         4  PRO       CA             -0.6445878800        0.8501397561        1.9013225182  PROD      4               0.0000000000
        69         4  PRO       HA             -1.6630304828        0.8441485221        2.2537816097  PROD      4               0.0000000000
        70         4  PRO       CB              0.1575995028       -0.4517783276        2.0161341303  PROD      4               0.0000000000
        71         4  PRO       HB1             0.0710673976       -0.8975501898        3.0294850968  PROD      4               0.0000000000
        72         4  PRO       HB2             1.2316327378       -0.2923361394        1.7835156906  PROD      4               0.0000000000
        73         4  PRO       CG             -0.5284344213       -1.3246256934        0.9531492147  PROD      4               0.0000000000
        74         4  PRO       HG1             0.1674125067       -1.6502780471        0.1529690076  PROD      4               0.0000000000
        75         4  PRO       HG2            -1.0246631971       -2.2166635045        1.3873914422  PROD      4               0.0000000000
        76         4  PRO       C               0.2800787497        1.9116473878        2.4828671613  PROD      4               0.0000000000
        77         4  PRO       OT1             0.9405837751        2.6244624786        1.6808523499  PROD      4               0.0000000000
        78         4  PRO       OT2             0.3377828686        2.0233288921        3.7365806359  PROD      4               0.0000000000
        79         5  ASN       N              -0.7217856030        0.8506925047        4.2420497996  PROE      5               0.0000000000
        80         5  ASN       HT1            -1.0966916358        1.7515251107        3.8821246927  PROE      5               0.0000000000
        81         5  ASN       HT2            -1.2968403994        0.0650572605        3.8764148994  PROE      5               0.0000000000
        82         5  ASN       HT3             0.2627466665        0.7346096610        3.9276923281  PROE      5               0.0000000000
        83         5  ASN       CA             -0.7698446466        0.8510366155        5.6992574752  PROE      5               0.0000000000
        84         5  ASN       HA             -1.7997035726        0.7937449320        6.0180646197  PROE      5               0.0000000000
        85         5  ASN       CB              0.0281676111       -0.3831215939        6.1420937324  PROE      5               0.0000000000
        86         5  ASN       HB1             0.1149099410       -0.3513387476        7.2481436090  PROE      5               0.0000000000
        87         5  ASN       HB2             1.0403992349       -0.3110811586        5.6925628369  PROE      5               0.0000000000
        88         5  ASN       CG             -0.5415265737       -1.7632901334        5.7674374388  PROE      5               0.0000000000
        89         5  ASN       OD1             0.0734307248       -2.7697759586        6.0891202093  PROE      5               0.0000000000
        90         5  ASN       ND2            -1.7019356661       -1.8606750482        5.0888418916  PROE      5               0.0000000000
        91         5  ASN       HD21           -1.9919951318       -2.7430852719        4.7184128116  PROE      5               0.0000000000
        92         5  ASN       HD22           -2.2728509868       -1.0505203391        4.9557815900  PROE      5               0.0000000000
        93         5  ASN       C               0.1548219831        1.9125442471        6.2808021184  PROE      5               0.0000000000
        94         5  ASN       OT1             0.8153270085        2.6253593380        5.4787873070  PROE      5               0.0000000000
        95         5  ASN       OT2             0.2125261020        2.0242257515        7.5345155929  PROE      5               0.0000000000
        96         6  PRO       N              -0.8470423696        0.8515893641        8.0399847567  PROF      6               0.0000000000
        97         6  PRO       HN1            -1.2077016732        1.6860700554        7.6210770282  PROF      6               0.0000000000
        98         6  PRO       HN2             0.0548610773        0.6363156683        7.6629645306  PROF      6               0.0000000000
        99         6  PRO       CD             -1.7704100293       -0.2596110139        8.0238018947  PROF      6               0.0021981495
       100         6  PRO       HD1            -2.1699592230       -0.4712225456        7.0124916349  PROF      6               0.0000000000
       101         6  PRO       HD2            -2.6071847360       -0.1330420409        8.7386136361  PROF      6               0.0038000958
       102         6  PRO       CA             -0.8951014133        0.8519334748        9.4971924323  PROF      6               0.0349087116
       103         6  PRO       HA             -1.8977948481        0.7424754303        9.8725003474  PROF      6               0.0461612036
       104         6  PRO       CB              0.0202794790       -0.3741889708        9.4826469779  PROF      6               0.0349728055
       105         6  PRO       HB1             0.0955379701       -0.8415825332       10.4870716969  PROF      6               0.0576392161
       106         6  PRO       HB2             1.0407805787       -0.1197566116        9.1265131843  PROF      6               0.0211529811
       107         6  PRO       CG             -0.7150541667       -1.2802401030        8.4910836791  PROF      6               0.0149301278
       108         6  PRO       HG1            -0.0602020869       -1.6221425002        7.6631593987  PROF      6               0.0000000000
       109         6  PRO       HG2            -1.1695645429       -2.1653423983        8.9822062245  PROF      6               0.0151472352
       110         6  PRO       C               0.0295652164        1.9134411065       10.0787370754  PROF      6               0.0443360285
       111         6  PRO       OT1             0.6900702418        2.6262561973        9.2767222641  PROF      6               0.0305136881
       112         6  PRO       OT2             0.0872693353        2.0251226108       11.3324505500  PROF      6               0.0540932943
