* GENERATED BY CHARMM-GUI (HTTP://WWW.CHARMM-GUI.ORG) V3.7 ON AUG, 30. 2026. JOB
* GENERATES LIPID PACKING USING BIG SPHERES
*  DATE:     8/30/26     14:16:33      CREATED BY USER: charmm-gui
*
       130  EXT
         1         1  POPC      POLO            1.9464123170       -7.7558720620       12.0526576894  HEAD      1               0.0000000000
         2         2  POPC      POLO           29.3539488002       31.8043846240       12.0241875112  HEAD      2               0.0000000000
         3         3  POPC      POLO          -12.4647014359       23.2219685128       12.0712016086  HEAD      3               0.0000000000
         4         4  POPC      POLO            6.6447108564       -1.2024650590       12.0857841528  HEAD      4               0.0000000000
         5         5  POPC      POLO          -18.6918574887      -16.3044526537       12.0304849152  HEAD      5               0.0000000000
         6         6  POPC      POLO           -4.5180375389       20.0679641042       11.9933286050  HEAD      6               0.0000000000
         7         7  POPC      POLO           19.6703676320      -22.2320022806       12.1086940566  HEAD      7               0.0000000000
         8         8  POPC      POLO          -22.4358474508      -31.4904780028       11.9804719059  HEAD      8               0.0000000000
         9         9  POPC      POLO          -32.3026749528       13.6987415303       12.1089617284  HEAD      9               0.0000000000
        10        10  POPC      POLO           31.5034370717       22.7992202380       12.0522167935  HEAD      10              0.0000000000
        11        11  POPC      POLO           -8.3693046446      -28.2466263359       11.9312251938  HEAD      11              0.0000000000
        12        12  POPC      POLO            4.5393337797        7.2439878848       11.9419584340  HEAD      12              0.0000000000
        13        13  POPC      POLO           21.5772342019      -31.1212845952       12.0492919931  HEAD      13              0.0000000000
        14        14  POPC      POLO           27.5365775022        8.0415608727       11.8871596563  HEAD      14              0.0000000000
        15        15  POPC      POLO          -30.4913541069        4.9329176176       12.1402951585  HEAD      15              0.0000000000
        16        16  POPC      POLO           18.6804957665       10.9452711485       12.0126281857  HEAD      16              0.0000000000
        17        17  POPC      POLO          -32.3549640530      -19.2524427344       11.8877083395  HEAD      17              0.0000000000
        18        18  POPC      POLO          -15.8157871723        7.3144773235       12.0647155595  HEAD      18              0.0000000000
        19        19  POPC      POLO          -23.9385099763       10.5998453911       12.0233122066  HEAD      19              0.0000000000
        20        20  POPC      POLO           17.8525370479      -13.1556773000       12.0305632023  HEAD      20              0.0000000000
        21        21  POPC      POLO          -10.7919257831       14.0911024893       12.0757782540  HEAD      21              0.0000000000
        22        22  POPC      POLO           15.1997018987       -4.0688353002       12.0426370245  HEAD      22              0.0000000000
        23        23  POPC      POLO          -26.6189371258      -12.9147374228       11.9946421191  HEAD      23              0.0000000000
        24        24  POPC      POLO            5.4157650948      -24.8315579280       12.0482742910  HEAD      24              0.0000000000
        25        25  POPC      POLO          -22.5007514115        1.7624068666       11.9835485844  HEAD      25              0.0000000000
        26        26  POPC      POLO            3.5957850246      -16.2950450456       12.0034640211  HEAD      26              0.0000000000
        27        27  POPC      POLO          -20.2872517657       -7.1558624128       12.0451293022  HEAD      27              0.0000000000
        28        28  POPC      POLO          -28.6911542715       28.7822127586       11.9610480951  HEAD      28              0.0000000000
        29        29  POPC      POLO           -0.3884810654      -31.0080303038       12.0696263110  HEAD      29              0.0000000000
        30        30  POPC      POLO           13.3475458480      -28.2044329765       11.9991884615  HEAD      30              0.0000000000
        31        31  POPC      POLO           -6.1362954548       29.2312955362       12.0653397001  HEAD      31              0.0000000000
        32        32  POPC      POLO          -18.6647772607       17.6172565010       11.9831463392  HEAD      32              0.0000000000
        33        33  POPC      POLO           10.6245008147       13.3652283450       12.0476504195  HEAD      33              0.0000000000
        34        34  POPC      POLO          -16.5199454208      -25.5234353932       11.9945867148  HEAD      34              0.0000000000
        35        35  POPC      POLO          -20.4260261031       26.1926565081       12.0320928321  HEAD      35              0.0000000000
        36        36  POPC      POLO          -24.6611594429      -22.6265508393       12.0024430280  HEAD      36              0.0000000000
        37        37  POPC      POLO           25.6925225552      -16.2641163292       12.0369970390  HEAD      37              0.0000000000
        38        38  POPC      POLO           25.7997792382       16.5382885188       12.0851524229  HEAD      38              0.0000000000
        39        39  POPC      POLO           17.4636224340       19.4721504882       11.9329626634  HEAD      39              0.0000000000
        40        40  POPC      POLO           21.4831215788        1.6614223067       11.9621575787  HEAD      40              0.0000000000
        41        41  POPC      POLO           23.3959093547       -7.0089416227       11.9836066623  HEAD      41              0.0000000000
        42        42  POPC      POLO            9.7081883752       22.9267837437       12.0055804564  HEAD      42              0.0000000000
        43        43  POPC      POLO           -2.8985188716       11.2398092630       11.9285706468  HEAD      43              0.0000000000
        44        44  POPC      POLO           -2.8065090745      -22.2754433496       12.0060374163  HEAD      44              0.0000000000
        45        45  POPC      POLO          -14.1902749104       32.0681827316       12.0618761134  HEAD      45              0.0000000000
        46        46  POPC      POLO          -10.7899866286      -19.2365251012       12.0787542104  HEAD      46              0.0000000000
        47        47  POPC      POLO          -13.8983031204       -1.2536507894       12.1093432714  HEAD      47              0.0000000000
        48        48  POPC      POLO           29.8454606945       -1.3355771537       11.9880475249  HEAD      48              0.0000000000
        49        49  POPC      POLO          -12.4823104135      -10.4129282570       12.0610390647  HEAD      49              0.0000000000
        50        50  POPC      POLO          -26.5922919142       20.0287532081       11.8849023679  HEAD      50              0.0000000000
        51        51  POPC      POLO           -4.5922814414      -13.2909544196       12.1349155540  HEAD      51              0.0000000000
        52        52  POPC      POLO            9.7471338329      -10.3788963950       11.9682118912  HEAD      52              0.0000000000
        53        53  POPS      POLO           23.1849377191       25.8514536928       11.9108311958  HEAD      53              0.0000000000
        54        54  POPS      POLO            7.4034180833       32.2850377921       11.9564479777  HEAD      54              0.0000000000
        55        55  POPS      POLO           12.9550543055        4.6148615780       11.9540323136  HEAD      55              0.0000000000
        56        56  POPS      POLO          -30.8772233267      -28.5296796820       11.9432645848  HEAD      56              0.0000000000
        57        57  POPS      POLO          -28.4964290896       -4.2925744757       11.9662324094  HEAD      57              0.0000000000
        58        58  POPS      POLO           15.3081625030       29.1142121966       11.9239956797  HEAD      58              0.0000000000
        59        59  POPS      POLO           -5.6947607737       -4.5146227132       11.8964195131  HEAD      59              0.0000000000
        60        60  POPS      POLO           11.7380091453      -18.9718124624       12.1132434705  HEAD      60              0.0000000000
        61        61  POPS      POLO           31.5311862778      -10.3441644210       12.0681610248  HEAD      61              0.0000000000
        62        62  POPS      POLO            1.8155385972       26.0442303696       11.9146529441  HEAD      62              0.0000000000
        63        63  POPS      POLO           -6.7446475585        3.8124029783       11.7968889779  HEAD      63              0.0000000000
        64        64  POPS      POLO            3.1828792178       17.1236661515       11.9506619560  HEAD      64              0.0000000000
        65        65  POPS      POLO           27.6751092043      -25.0400683406       11.9389405111  HEAD      65              0.0000000000
        66        66  POPC      POLO           17.5029634910      -24.2160297650      -11.8876351399  HEAD      66              0.0000000000
        67        67  POPC      POLO           24.8663624927      -28.9727185680      -12.0891324889  HEAD      67              0.0000000000
        68        68  POPC      POLO           -5.4041265517      -15.8583739685      -12.1424308659  HEAD      68              0.0000000000
        69        69  POPC      POLO          -17.9801025150      -17.4508920368      -12.0522202850  HEAD      69              0.0000000000
        70        70  POPC      POLO           11.3836209945      -10.5871817478      -12.0234512215  HEAD      70              0.0000000000
        71        71  POPC      POLO          -29.8104394217        0.6165857736      -12.0697744324  HEAD      71              0.0000000000
        72        72  POPC      POLO          -28.4364174160       18.1102614459      -12.1197679565  HEAD      72              0.0000000000
        73        73  POPC      POLO            9.1768088856       29.4545289592      -11.9439448737  HEAD      73              0.0000000000
        74        74  POPC      POLO          -12.3738136791      -31.3464329951      -12.0992836296  HEAD      74              0.0000000000
        75        75  POPC      POLO           32.5367524788      -25.2591099583      -11.9693064873  HEAD      75              0.0000000000
        76        76  POPC      POLO          -27.7621212874       27.0702984968      -12.0798294257  HEAD      76              0.0000000000
        77        77  POPC      POLO            4.2777889587       -5.2624193416      -12.0856400011  HEAD      77              0.0000000000
        78        78  POPC      POLO          -26.9055828194      -30.5161044592      -12.0868605555  HEAD      78              0.0000000000
        79        79  POPC      POLO           12.6299986888       -2.2867767479      -11.9840699023  HEAD      79              0.0000000000
        80        80  POPC      POLO           27.7984129786       -3.1067659913      -12.0127687871  HEAD      80              0.0000000000
        81        81  POPC      POLO           22.0652230470       10.6045546178      -11.9797278551  HEAD      81              0.0000000000
        82        82  POPC      POLO            3.0062104986      -13.8181814510      -11.8652729246  HEAD      82              0.0000000000
        83        83  POPC      POLO           -5.3948490543       30.5166494610      -12.0907313600  HEAD      83              0.0000000000
        84        84  POPC      POLO           23.7967396827       28.3033010721      -12.0335815586  HEAD      84              0.0000000000
        85        85  POPC      POLO          -20.8484663829       12.8643104480      -12.0070508364  HEAD      85              0.0000000000
        86        86  POPC      POLO           25.6861295397      -20.1870012306      -12.0373188779  HEAD      86              0.0000000000
        87        87  POPC      POLO            9.7815945248      -27.6988516413      -11.9021498078  HEAD      87              0.0000000000
        88        88  POPC      POLO           29.3466400456        5.7274862592      -11.9631094380  HEAD      88              0.0000000000
        89        89  POPC      POLO          -21.5032375134        3.8522274073      -12.0363601415  HEAD      89              0.0000000000
        90        90  POPC      POLO           30.2404230059       14.5084590416      -12.0434871659  HEAD      90              0.0000000000
        91        91  POPC      POLO          -31.6377992868       -7.8705841819      -11.9324307464  HEAD      91              0.0000000000
        92        92  POPC      POLO           18.4409732909      -15.4848131044      -12.0770326713  HEAD      92              0.0000000000
        93        93  POPC      POLO           30.8990289751       23.2838761818      -12.0616495919  HEAD      93              0.0000000000
        94        94  POPC      POLO          -13.8839007774        7.1473526556      -11.8342594085  HEAD      94              0.0000000000
        95        95  POPC      POLO           -6.4646788637        2.1177732786      -12.0096354345  HEAD      95              0.0000000000
        96        96  POPC      POLO            7.6993892149       12.0072338103      -12.1503327368  HEAD      96              0.0000000000
        97        97  POPC      POLO          -22.6536654170       -4.6497344075      -12.1371714169  HEAD      97              0.0000000000
        98        98  POPC      POLO            8.2279072434       20.6452303545      -12.0961907649  HEAD      98              0.0000000000
        99        99  POPC      POLO          -11.1808111929      -21.9890819404      -11.9010000618  HEAD      99              0.0000000000
       100       100  POPC      POLO           16.1668372205       24.7398163087      -11.9529548404  HEAD      100             0.0000000000
       101       101  POPC      POLO          -20.5575581059       21.9384945364      -12.0729871891  HEAD      101             0.0000000000
       102       102  POPC      POLO            6.4292589764        2.9605116709      -11.8824019762  HEAD      102             0.0000000000
       103       103  POPC      POLO           -6.1084625035       21.6047607471      -11.9664637628  HEAD      103             0.0000000000
       104       104  POPC      POLO           -4.7700027112      -27.1821627665      -12.0220981211  HEAD      104             0.0000000000
       105       105  POPC      POLO            1.9032407471      -22.3078480228      -12.0085399080  HEAD      105             0.0000000000
       106       106  POPC      POLO            1.4487326187       25.4683985302      -11.8902009197  HEAD      106             0.0000000000
       107       107  POPC      POLO           -6.9460687400       12.3080419773      -11.9267670038  HEAD      107             0.0000000000
       108       108  POPC      POLO          -32.6776344301      -16.6465824080      -11.9101758798  HEAD      108             0.0000000000
       109       109  POPC      POLO           19.6585655972       -6.9431807465      -12.0086567985  HEAD      109             0.0000000000
       110       110  POPC      POLO          -14.3754719492       -1.9718797375      -12.0003684984  HEAD      110             0.0000000000
       111       111  POPC      POLO           16.8624519849      -32.8881618046      -12.0851789947  HEAD      111             0.0000000000
       112       112  POPC      POLO           15.1941429811       15.8969803910      -11.8868134895  HEAD      112             0.0000000000
       113       113  POPC      POLO          -20.0122658545       30.9335778298      -12.1566689206  HEAD      113             0.0000000000
       114       114  POPC      POLO          -24.7954757653      -12.8312894138      -11.8774518899  HEAD      114             0.0000000000
       115       115  POPC      POLO          -13.6108657532       17.1398742946      -11.9739555359  HEAD      115             0.0000000000
       116       116  POPC      POLO          -28.7094358029        9.2599148695      -11.9985428729  HEAD      116             0.0000000000
       117       117  POPC      POLO           31.5679527336       31.9383340753      -12.0958730244  HEAD      117             0.0000000000
       118       118  POPS      POLO            2.2101993145      -31.7449019224      -11.9028731213  HEAD      118             0.0000000000
       119       119  POPS      POLO           14.3644751136        6.7878859794      -11.9148315004  HEAD      119             0.0000000000
       120       120  POPS      POLO          -18.9436835017      -26.6275551958      -11.9643586182  HEAD      120             0.0000000000
       121       121  POPS      POLO          -12.7552970982      -10.5228681798      -12.0117904805  HEAD      121             0.0000000000
       122       122  POPS      POLO           26.8408879385      -11.8665888370      -11.9514704213  HEAD      122             0.0000000000
       123       123  POPS      POLO           -4.5017887274       -6.8549824693      -12.0326769096  HEAD      123             0.0000000000
       124       124  POPS      POLO            0.0542098856        8.1414610621      -11.9879113751  HEAD      124             0.0000000000
       125       125  POPS      POLO           23.2337740786       19.5947496549      -11.9150443223  HEAD      125             0.0000000000
       126       126  POPS      POLO            0.6729254637       16.5152104652      -12.0479808723  HEAD      126             0.0000000000
       127       127  POPS      POLO          -13.2109553295       26.0075812590      -12.0622938838  HEAD      127             0.0000000000
       128       128  POPS      POLO           21.0777399801        1.8628469867      -12.0026418795  HEAD      128             0.0000000000
       129       129  POPS      POLO          -25.8434759183      -21.4637103901      -12.0780393478  HEAD      129             0.0000000000
       130       130  POPS      POLO           10.0311326975      -18.9151957709      -11.8789619869  HEAD      130             0.0000000000
